<?xml version="1.0"?>
<VTKFile type="UnstructuredGrid" version="0.1" byte_order="LittleEndian">
  <UnstructuredGrid>
    <Piece NumberOfPoints="10" NumberOfCells="9">
      <PointData Scalars="W">
        <DataArray type="Float32" Name="W" NumberOfComponents="2">
          0 0 -1.7821168399537071 3.6073756319606844 1.8888138335367397 -7.2555206668212104 -3.3802363415602814 -5.5710131034518016 3.1427367297000157 4.5670424847785771 -1.399599350656751 7.9361395038040827 1.25960973851334 -2.3653972981117626 -1.4389284668246631 -8.5995380839290689 -0.5006796794296543 -0.577867521207034 0 0
        </DataArray>
        <DataArray type="Float32" Name="u" NumberOfComponents="1">
          0 0.1111111111111111 0.22222222222222221 0.33333333333333331 0.44444444444444442 0.55555555555555558 0.66666666666666663 0.77777777777777779 0.88888888888888884 1
        </DataArray>
      </PointData>
      <CellData Scalars="P">
        <DataArray type="Float32" Name="P" NumberOfComponents="1">
          0.0020133126517124897 -0.0061815173611153781 0.017753306900418337 0.07722541463287079 0.036448151112178591 -0.069183211107037859 -0.014464124602360556 -0.006873551419619389 -0.0026424350983194149
        </DataArray>
      </CellData>
      <Points>
        <DataArray type="Float32" NumberOfComponents="3" format="ascii">
          -0.088765473254021898 0.15591485705314376 0
          0.019333526079344899 0.1816152463011847 0
          0.10543001905523476 0.25185113023417138 0
          0.21484587544201952 0.23251228736545393 0
          0.28252967371311971 0.14439541574798548 0
          0.38901393433016318 0.11266175249033065 0
          0.47821829391871823 0.17890626374782392 0
          0.58297363915221923 0.21594819500489368 0
          0.66996418519804013 0.14682220886480626 0
          0.7507736197242616 0.070561848234785354 0
        </DataArray>
      </Points>
      <Cells>
        <DataArray type="Int32" Name="connectivity" format="ascii">
          0 1 1 2 2 3 3 4 4 5 5 6 6 7 7 8 8 9 
        </DataArray>
        <DataArray type="Int32" Name="offsets" format="ascii">
          2 4 6 8 10 12 14 16 18 
        </DataArray>
        <DataArray type="Int32" Name="types" format="ascii">
          3 3 3 3 3 3 3 3 3         </DataArray>
      </Cells>
    </Piece>
  </UnstructuredGrid>
</VTKFile>
