<?xml version="1.0"?>
<VTKFile type="UnstructuredGrid" version="0.1" byte_order="LittleEndian">
  <UnstructuredGrid>
    <Piece NumberOfPoints="10" NumberOfCells="9">
      <PointData Scalars="W">
        <DataArray type="Float32" Name="W" NumberOfComponents="2">
          0 0 1.00032141745827 -1.571423588762302 -0.3773938165182078 -8.7229936032174944 -0.93461920643361884 -1.2629839677692667 1.9970101921112802 8.1258921887154969 -2.2843525820219015 4.1131200316998209 2.5398886362481092 -6.649528441532512 -2.9712652385754739 -6.3142786519678413 2.6200229015277201 4.1726506979611342 0 0
        </DataArray>
        <DataArray type="Float32" Name="u" NumberOfComponents="1">
          0 0.1111111111111111 0.22222222222222221 0.33333333333333331 0.44444444444444442 0.55555555555555558 0.66666666666666663 0.77777777777777779 0.88888888888888884 1
        </DataArray>
      </PointData>
      <CellData Scalars="P">
        <DataArray type="Float32" Name="P" NumberOfComponents="1">
          0.0055166228897856771 0.011000568069389864 0.010329081262849746 0.056677319934635907 -0.048503316017005159 -0.067700329956547622 -0.018325274625300824 0.006474221220525705 -0.0041075970990924818
        </DataArray>
      </CellData>
      <Points>
        <DataArray type="Float32" NumberOfComponents="3" format="ascii">
          -0.22733036728073922 0.14005658954271627 0
          -0.14027678874487437 0.20910325955681244 0
          -0.040873411543762256 0.25874952182596272 0
          0.053870724408971962 0.20070362330300104 0
          0.13707625975034893 0.12706520526303094 0
          0.24493707309527082 0.15374765137539664 0
          0.32459487667918385 0.23120935292908085 0
          0.43561007114458616 0.22657783287547115 0
          0.50994221829142639 0.1439920507020517 0
          0.61662149803007538 0.11292042619008053 0
        </DataArray>
      </Points>
      <Cells>
        <DataArray type="Int32" Name="connectivity" format="ascii">
          0 1 1 2 2 3 3 4 4 5 5 6 6 7 7 8 8 9 
        </DataArray>
        <DataArray type="Int32" Name="offsets" format="ascii">
          2 4 6 8 10 12 14 16 18 
        </DataArray>
        <DataArray type="Int32" Name="types" format="ascii">
          3 3 3 3 3 3 3 3 3         </DataArray>
      </Cells>
    </Piece>
  </UnstructuredGrid>
</VTKFile>
