<?xml version="1.0"?>
<VTKFile type="UnstructuredGrid" version="0.1" byte_order="LittleEndian">
  <UnstructuredGrid>
    <Piece NumberOfPoints="10" NumberOfCells="9">
      <PointData Scalars="W">
        <DataArray type="Float32" Name="W" NumberOfComponents="2">
          0 0 3.4593285892018137 4.7977349229919559 -1.2702544356176375 7.7604750101987232 1.3512685703841942 -2.90455807136368 -2.1137403335865566 -8.4110468713202131 -0.13635629864378801 -0.14348599773336226 2.3157451609376856 8.2877348802393396 -1.4434231031536631 3.2087417263708975 1.3482910611518186 -7.6183045709005359 0 0
        </DataArray>
        <DataArray type="Float32" Name="u" NumberOfComponents="1">
          0 0.1111111111111111 0.22222222222222221 0.33333333333333331 0.44444444444444442 0.55555555555555558 0.66666666666666663 0.77777777777777779 0.88888888888888884 1
        </DataArray>
      </PointData>
      <CellData Scalars="P">
        <DataArray type="Float32" Name="P" NumberOfComponents="1">
          0.017157970423791427 0.0081933476701085625 -0.0042698047916436424 0.018637806397231657 -0.029261642792915186 0.0010162091352445691 -0.021849554268766638 -0.0026033131006910457 -0.0086424898334359519
        </DataArray>
      </CellData>
      <Points>
        <DataArray type="Float32" NumberOfComponents="3" format="ascii">
          -0.03654577479601593 0.27502830547685109 0
          0.027221681230084845 0.18403714544836372 0
          0.13369779477893948 0.1522772688208284 0
          0.22449104257197347 0.21632640836913089 0
          0.33196735895379254 0.24451678991949261 0
          0.41334758021671586 0.16886589678673786 0
          0.49304426964482756 0.091443658288408405 0
          0.60133091969533103 0.11634004467790317 0
          0.69179694101429035 0.18085061941961872 0
          0.79890940075750583 0.15130723060379009 0
        </DataArray>
      </Points>
      <Cells>
        <DataArray type="Int32" Name="connectivity" format="ascii">
          0 1 1 2 2 3 3 4 4 5 5 6 6 7 7 8 8 9 
        </DataArray>
        <DataArray type="Int32" Name="offsets" format="ascii">
          2 4 6 8 10 12 14 16 18 
        </DataArray>
        <DataArray type="Int32" Name="types" format="ascii">
          3 3 3 3 3 3 3 3 3         </DataArray>
      </Cells>
    </Piece>
  </UnstructuredGrid>
</VTKFile>
