<?xml version="1.0"?>
<VTKFile type="UnstructuredGrid" version="0.1" byte_order="LittleEndian">
  <UnstructuredGrid>
    <Piece NumberOfPoints="10" NumberOfCells="9">
      <PointData Scalars="W">
        <DataArray type="Float32" Name="W" NumberOfComponents="2">
          0 0 3.6382681474447192 6.3778283207838928 -1.8663968063499941 6.4260295153776239 1.8918676973286002 -4.9757171684344979 -3.2464692651463554 -7.5032262187486429 1.5971424189117274 1.7173024919000801 0.98349869879196294 8.6592030629900538 -0.46575443682546358 0.96017513956419498 0.17246676452015211 -8.4793110287767561 0 0
        </DataArray>
        <DataArray type="Float32" Name="u" NumberOfComponents="1">
          0 0.1111111111111111 0.22222222222222221 0.33333333333333331 0.44444444444444442 0.55555555555555558 0.66666666666666663 0.77777777777777779 0.88888888888888884 1
        </DataArray>
      </PointData>
      <CellData Scalars="P">
        <DataArray type="Float32" Name="P" NumberOfComponents="1">
          0.019908089458286968 -0.0040126896379579363 -0.011253510342399325 0.0083796733364006042 -0.0028796665278258329 0.021366954974785943 -0.024760893292038216 0.0018549431277088029 -0.0094313572328707761
        </DataArray>
      </CellData>
      <Points>
        <DataArray type="Float32" NumberOfComponents="3" format="ascii">
          -0.037714093943357681 0.26380035141353336 0
          0.027944308643697343 0.17416404530901639 0
          0.13852058396379277 0.16326665007440169 0
          0.22605400665388392 0.23170334566310935 0
          0.33694475605686569 0.23871124235153737 0
          0.40775474041492821 0.15308602206507269 0
          0.49828298240243457 0.088661962818212328 0
          0.60095321722294037 0.13114278887297184 0
          0.69787321245714373 0.18547765995700294 0
          0.7969228505362681 0.13512854135864849 0
        </DataArray>
      </Points>
      <Cells>
        <DataArray type="Int32" Name="connectivity" format="ascii">
          0 1 1 2 2 3 3 4 4 5 5 6 6 7 7 8 8 9 
        </DataArray>
        <DataArray type="Int32" Name="offsets" format="ascii">
          2 4 6 8 10 12 14 16 18 
        </DataArray>
        <DataArray type="Int32" Name="types" format="ascii">
          3 3 3 3 3 3 3 3 3         </DataArray>
      </Cells>
    </Piece>
  </UnstructuredGrid>
</VTKFile>
