<?xml version="1.0"?>
<VTKFile type="UnstructuredGrid" version="0.1" byte_order="LittleEndian">
  <UnstructuredGrid>
    <Piece NumberOfPoints="10" NumberOfCells="9">
      <PointData Scalars="W">
        <DataArray type="Float32" Name="W" NumberOfComponents="2">
          0 0 -2.5828875406709906 -4.001902671432485 2.9944919615581242 6.4166960450046711 -2.5222645962582275 6.5437433990819462 2.3107019572740888 -4.291881468835574 -2.1375712080335276 -8.029692069606023 1.0824601074014131 1.4568824106715366 0.26510422915495868 8.7469892257688393 -0.8972200237018314 1.4000482894332933 0 0
        </DataArray>
        <DataArray type="Float32" Name="u" NumberOfComponents="1">
          0 0.1111111111111111 0.22222222222222221 0.33333333333333331 0.44444444444444442 0.55555555555555558 0.66666666666666663 0.77777777777777779 0.88888888888888884 1
        </DataArray>
      </PointData>
      <CellData Scalars="P">
        <DataArray type="Float32" Name="P" NumberOfComponents="1">
          0.0032255892653045358 -0.0063212118178564937 0.017303081092887539 0.070155474928918188 0.045680550926025076 -0.061461416675337104 -0.012488464872218526 -0.0093974063123618817 -0.0044337881672742285
        </DataArray>
      </CellData>
      <Points>
        <DataArray type="Float32" NumberOfComponents="3" format="ascii">
          -0.21782245268280542 0.26249535188718021 0
          -0.11184986431555373 0.22909298934223216 0
          -0.037765899836039271 0.14628449430732754 0
          0.073287862443613155 0.14269468974024607 0
          0.15320180982615361 0.21989210388761124 0
          0.26164410093918589 0.24410330242441819 0
          0.34369573631425204 0.16918132628531923 0
          0.43911119742396765 0.11224568150907906 0
          0.53779956486060321 0.16329841055743213 0
          0.62541107029772192 0.23163583443637084 0
        </DataArray>
      </Points>
      <Cells>
        <DataArray type="Int32" Name="connectivity" format="ascii">
          0 1 1 2 2 3 3 4 4 5 5 6 6 7 7 8 8 9 
        </DataArray>
        <DataArray type="Int32" Name="offsets" format="ascii">
          2 4 6 8 10 12 14 16 18 
        </DataArray>
        <DataArray type="Int32" Name="types" format="ascii">
          3 3 3 3 3 3 3 3 3         </DataArray>
      </Cells>
    </Piece>
  </UnstructuredGrid>
</VTKFile>
