<?xml version="1.0"?>
<VTKFile type="UnstructuredGrid" version="0.1" byte_order="LittleEndian">
  <UnstructuredGrid>
    <Piece NumberOfPoints="10" NumberOfCells="9">
      <PointData Scalars="W">
        <DataArray type="Float32" Name="W" NumberOfComponents="2">
          0 0 -2.8551700544348662 -6.3588325997945701 2.5469798349962618 4.2332904677520764 -1.7767244280638157 8.1085390363380085 1.043742977405556 -1.5564574784987151 -0.17591487648887666 -8.7312103414013347 -0.90051728314614166 -1.2783860950820676 1.8011241322211926 8.1780237323526439 -2.3884523290031705 4.0592279807558151 0 0
        </DataArray>
        <DataArray type="Float32" Name="u" NumberOfComponents="1">
          0 0.1111111111111111 0.22222222222222221 0.33333333333333331 0.44444444444444442 0.55555555555555558 0.66666666666666663 0.77777777777777779 0.88888888888888884 1
        </DataArray>
      </PointData>
      <CellData Scalars="P">
        <DataArray type="Float32" Name="P" NumberOfComponents="1">
          0.0072740226513847497 -3.1986851543482171e-06 0.017878239495913828 0.025129841576905464 0.047357033453376392 -0.032449432037662436 -0.0046900123591459347 -0.011886688945943415 -0.012649610687801949
        </DataArray>
      </CellData>
      <Points>
        <DataArray type="Float32" NumberOfComponents="3" format="ascii">
          0.043294828607492557 0.22037297994363472 0
          0.15437388113468289 0.21766377734345699 0
          0.23020281949196375 0.13645008940512321 0
          0.33747670142786296 0.10749928105181837 0
          0.4228151035076656 0.17865461519382475 0
          0.52103978330947454 0.23059456229198455 0
          0.61709262204684223 0.17474035935455859 0
          0.70202746640545322 0.10310375938936371 0
          0.80919898462535367 0.13243115898627308 0
          0.8868827336111933 0.21187253348522073 0
        </DataArray>
      </Points>
      <Cells>
        <DataArray type="Int32" Name="connectivity" format="ascii">
          0 1 1 2 2 3 3 4 4 5 5 6 6 7 7 8 8 9 
        </DataArray>
        <DataArray type="Int32" Name="offsets" format="ascii">
          2 4 6 8 10 12 14 16 18 
        </DataArray>
        <DataArray type="Int32" Name="types" format="ascii">
          3 3 3 3 3 3 3 3 3         </DataArray>
      </Cells>
    </Piece>
  </UnstructuredGrid>
</VTKFile>
