<?xml version="1.0"?>
<VTKFile type="UnstructuredGrid" version="0.1" byte_order="LittleEndian">
  <UnstructuredGrid>
    <Piece NumberOfPoints="10" NumberOfCells="9">
      <PointData Scalars="W">
        <DataArray type="Float32" Name="W" NumberOfComponents="2">
          0 0 -1.18897215844271 -8.4894048285484018 0.25564714781422315 0.36518895915511446 0.71061484177755896 8.66634218904092 -1.6597908456976065 2.4838143139100333 2.3394416032053011 -7.5835019225097549 -2.6756970196847001 -5.1008210109954168 2.7505514613084658 5.703114264194487 -2.6229276468859339 7.1953252055690182 0 0
        </DataArray>
        <DataArray type="Float32" Name="u" NumberOfComponents="1">
          0 0.1111111111111111 0.22222222222222221 0.33333333333333331 0.44444444444444442 0.55555555555555558 0.66666666666666663 0.77777777777777779 0.88888888888888884 1
        </DataArray>
      </PointData>
      <CellData Scalars="P">
        <DataArray type="Float32" Name="P" NumberOfComponents="1">
          0.0096177942429900923 -0.0042802989327499928 0.023400061744871598 -0.021413561529412446 0.0017340299376009294 -0.0077939213076400511 0.0073712580469786244 0.0063180943046125078 -0.01903159161389506
        </DataArray>
      </CellData>
      <Points>
        <DataArray type="Float32" NumberOfComponents="3" format="ascii">
          -0.035511697304026146 0.19517758787701628 0
          0.068585808122198347 0.23403064647586685 0
          0.15800418547106709 0.16807514770647741 0
          0.25057877643837573 0.10662815679949152 0
          0.35192666203297507 0.15217416810276446 0
          0.43278272460345985 0.22838451839594026 0
          0.54252164996944496 0.21097067594907221 0
          0.61922628412300984 0.13058362262185988 0
          0.7298892849778027 0.12060557458801154 0
          0.80816957883127682 0.19945920611816145 0
        </DataArray>
      </Points>
      <Cells>
        <DataArray type="Int32" Name="connectivity" format="ascii">
          0 1 1 2 2 3 3 4 4 5 5 6 6 7 7 8 8 9 
        </DataArray>
        <DataArray type="Int32" Name="offsets" format="ascii">
          2 4 6 8 10 12 14 16 18 
        </DataArray>
        <DataArray type="Int32" Name="types" format="ascii">
          3 3 3 3 3 3 3 3 3         </DataArray>
      </Cells>
    </Piece>
  </UnstructuredGrid>
</VTKFile>
