<?xml version="1.0"?>
<VTKFile type="UnstructuredGrid" version="0.1" byte_order="LittleEndian">
  <UnstructuredGrid>
    <Piece NumberOfPoints="10" NumberOfCells="9">
      <PointData Scalars="W">
        <DataArray type="Float32" Name="W" NumberOfComponents="2">
          0 0 0.96840104967841345 8.6631404747908736 -0.51599042141645857 1.0441492176360168 0.28928766292136449 -8.4589695171841974 -2.8366841700529108 -3.3547481125823353 3.6954133281873243 6.2898547029784053 -1.8010174080721209 6.5011097783766809 1.8418503004951943 -4.9174606116892674 -3.2779585305951784 -7.5219116221599744 0 0
        </DataArray>
        <DataArray type="Float32" Name="u" NumberOfComponents="1">
          0 0.1111111111111111 0.22222222222222221 0.33333333333333331 0.44444444444444442 0.55555555555555558 0.66666666666666663 0.77777777777777779 0.88888888888888884 1
        </DataArray>
      </PointData>
      <CellData Scalars="P">
        <DataArray type="Float32" Name="P" NumberOfComponents="1">
          0.011447436210530092 -0.011742895830409663 0.017933557812511804 -0.018511905175076612 -0.0029638405454759931 -0.0026025644845768599 0.0048258958355675459 0.013591679262383851 -0.018158832003315785
        </DataArray>
      </CellData>
      <Points>
        <DataArray type="Float32" NumberOfComponents="3" format="ascii">
          -0.28063014066863962 0.23994097023531641 0
          -0.189996949961139 0.17566459988167044 0
          -0.087408135811147855 0.21834178516893715 0
          0.008810163155001223 0.27390970375007906 0
          0.10860034412900572 0.22504485471878843 0
          0.17336893145133864 0.13476349481504599 0
          0.28376093008652886 0.12213494615456841 0
          0.37191720100135595 0.18976744558828229 0
          0.48281324272828435 0.19669036787360425 0
          0.55323980619220037 0.11074952850035528 0
        </DataArray>
      </Points>
      <Cells>
        <DataArray type="Int32" Name="connectivity" format="ascii">
          0 1 1 2 2 3 3 4 4 5 5 6 6 7 7 8 8 9 
        </DataArray>
        <DataArray type="Int32" Name="offsets" format="ascii">
          2 4 6 8 10 12 14 16 18 
        </DataArray>
        <DataArray type="Int32" Name="types" format="ascii">
          3 3 3 3 3 3 3 3 3         </DataArray>
      </Cells>
    </Piece>
  </UnstructuredGrid>
</VTKFile>
