<?xml version="1.0"?>
<VTKFile type="UnstructuredGrid" version="0.1" byte_order="LittleEndian">
  <UnstructuredGrid>
    <Piece NumberOfPoints="10" NumberOfCells="9">
      <PointData Scalars="W">
        <DataArray type="Float32" Name="W" NumberOfComponents="2">
          0 0 3.133297356257061 4.0411351404694873 -0.84255011746082142 8.1754838107299026 0.94438030576421828 -1.9161979391384105 -1.4658972634413101 -8.6217892929531708 -0.91033042527060182 -0.97712176892107894 2.789581086415367 7.9356506132815161 -1.7493044441350514 4.13427885611926 1.7081882066359702 -7.0434920921950521 0 0
        </DataArray>
        <DataArray type="Float32" Name="u" NumberOfComponents="1">
          0 0.1111111111111111 0.22222222222222221 0.33333333333333331 0.44444444444444442 0.55555555555555558 0.66666666666666663 0.77777777777777779 0.88888888888888884 1
        </DataArray>
      </PointData>
      <CellData Scalars="P">
        <DataArray type="Float32" Name="P" NumberOfComponents="1">
          0.014849725934689839 0.011429306647660693 -0.00010254397713128903 0.025712677734909366 -0.041081792944601812 -0.014818621424589978 -0.019669946160536449 -0.0012543236066901334 -0.0081864250401906292
        </DataArray>
      </CellData>
      <Points>
        <DataArray type="Float32" NumberOfComponents="3" format="ascii">
          0.001186477139932922 0.27569078526376584 0
          0.066036214887386591 0.18546773416461568 0
          0.16956942880986123 0.14513517842483822 0
          0.26270023005755883 0.2057353157901898 0
          0.36749063388844766 0.24267872835163448 0
          0.45418324888331152 0.17317894906890835 0
          0.5296368241315309 0.091616112991449908 0
          0.63953032744824945 0.10802499436997248 0
          0.72782678779917154 0.17547448817786468 0
          0.83721299963395956 0.15596663637279487 0
        </DataArray>
      </Points>
      <Cells>
        <DataArray type="Int32" Name="connectivity" format="ascii">
          0 1 1 2 2 3 3 4 4 5 5 6 6 7 7 8 8 9 
        </DataArray>
        <DataArray type="Int32" Name="offsets" format="ascii">
          2 4 6 8 10 12 14 16 18 
        </DataArray>
        <DataArray type="Int32" Name="types" format="ascii">
          3 3 3 3 3 3 3 3 3         </DataArray>
      </Cells>
    </Piece>
  </UnstructuredGrid>
</VTKFile>
