<?xml version="1.0"?>
<VTKFile type="UnstructuredGrid" version="0.1" byte_order="LittleEndian">
  <UnstructuredGrid>
    <Piece NumberOfPoints="10" NumberOfCells="9">
      <PointData Scalars="W">
        <DataArray type="Float32" Name="W" NumberOfComponents="2">
          0 0 -0.48178632341852945 -0.5772072624817628 2.0596526946174749 8.2698164533831324 -1.8227977856825111 3.5600949016568255 1.9805948852109219 -7.2443522060778989 -3.311301423216928 -5.6051830203951152 3.090761025366473 4.6178246442787643 -1.5123155437603841 7.9224043207258479 1.2916388283923723 -2.3412515379716088 0 0
        </DataArray>
        <DataArray type="Float32" Name="u" NumberOfComponents="1">
          0 0.1111111111111111 0.22222222222222221 0.33333333333333331 0.44444444444444442 0.55555555555555558 0.66666666666666663 0.77777777777777779 0.88888888888888884 1
        </DataArray>
      </PointData>
      <CellData Scalars="P">
        <DataArray type="Float32" Name="P" NumberOfComponents="1">
          0.0009350036402799082 0.002877489557887622 0.015863342458983749 0.077088625952595385 -0.017677540703351709 -0.083859390523738947 -0.019294648178253455 0.0045134342791647557 -0.00084732287694654594
        </DataArray>
      </CellData>
      <Points>
        <DataArray type="Float32" NumberOfComponents="3" format="ascii">
          0.063789032349480315 0.26669745374068327 0
          0.15199036611379355 0.19912253159670013 0
          0.23424327485418073 0.12442185872493276 0
          0.34192444452926524 0.15181834219922896 0
          0.42710147538448878 0.22316674934215769 0
          0.53673142113394445 0.20507786282170792 0
          0.60547978677972969 0.11778896225266951 0
          0.71238634484646846 0.087510284287535892 0
          0.80062178277966001 0.1550395789408314 0
          0.90480429335771451 0.19366468055372862 0
        </DataArray>
      </Points>
      <Cells>
        <DataArray type="Int32" Name="connectivity" format="ascii">
          0 1 1 2 2 3 3 4 4 5 5 6 6 7 7 8 8 9 
        </DataArray>
        <DataArray type="Int32" Name="offsets" format="ascii">
          2 4 6 8 10 12 14 16 18 
        </DataArray>
        <DataArray type="Int32" Name="types" format="ascii">
          3 3 3 3 3 3 3 3 3         </DataArray>
      </Cells>
    </Piece>
  </UnstructuredGrid>
</VTKFile>
