<?xml version="1.0"?>
<VTKFile type="UnstructuredGrid" version="0.1" byte_order="LittleEndian">
  <UnstructuredGrid>
    <Piece NumberOfPoints="10" NumberOfCells="9">
      <PointData Scalars="W">
        <DataArray type="Float32" Name="W" NumberOfComponents="2">
          0 0 3.5561507197392848 6.7505195535809994 -1.9218855667954307 5.9954316124873612 1.9312736108489788 -5.4673728570256745 -3.4421083235511296 -7.1833986014472391 2.0052392424920664 2.1999338904620926 0.61053603420589231 8.6477615378339632 -0.17075482697064404 0.35019633288344659 -0.19451128472704213 -8.5950095183825805 0 0
        </DataArray>
        <DataArray type="Float32" Name="u" NumberOfComponents="1">
          0 0.1111111111111111 0.22222222222222221 0.33333333333333331 0.44444444444444442 0.55555555555555558 0.66666666666666663 0.77777777777777779 0.88888888888888884 1
        </DataArray>
      </PointData>
      <CellData Scalars="P">
        <DataArray type="Float32" Name="P" NumberOfComponents="1">
          0.019932423420456521 -0.0076467981838165763 -0.011473822053633648 0.0065558784000953971 0.0015867411512445646 0.022403570302953629 -0.023977632602003349 0.0045805631823790799 -0.0098529200131395826
        </DataArray>
      </CellData>
      <Points>
        <DataArray type="Float32" NumberOfComponents="3" format="ascii">
          -0.07685582841765265 0.26307106013421322 0
          -0.0097712749824919818 0.17449699204436261 0
          0.10121734046717165 0.16926307415408728 0
          0.18847804077267616 0.23804715260383044 0
          0.2995825765902731 0.23933254840002996 0
          0.36819099841761643 0.15193344939636805 0
          0.46155603337128964 0.091693895600545597 0
          0.56245844061454731 0.13821797200189495 0
          0.6612527141449982 0.18906548025354769 0
          0.75764589452712361 0.13380057144028529 0
        </DataArray>
      </Points>
      <Cells>
        <DataArray type="Int32" Name="connectivity" format="ascii">
          0 1 1 2 2 3 3 4 4 5 5 6 6 7 7 8 8 9 
        </DataArray>
        <DataArray type="Int32" Name="offsets" format="ascii">
          2 4 6 8 10 12 14 16 18 
        </DataArray>
        <DataArray type="Int32" Name="types" format="ascii">
          3 3 3 3 3 3 3 3 3         </DataArray>
      </Cells>
    </Piece>
  </UnstructuredGrid>
</VTKFile>
