<?xml version="1.0"?>
<VTKFile type="UnstructuredGrid" version="0.1" byte_order="LittleEndian">
  <UnstructuredGrid>
    <Piece NumberOfPoints="10" NumberOfCells="9">
      <PointData Scalars="W">
        <DataArray type="Float32" Name="W" NumberOfComponents="2">
          0 0 -0.69024037849171038 8.2511423986343413 0.84044045436103276 -1.7178174012908529 -1.387306533097491 -8.6411610877346359 -1.0739982655529188 -1.1432069326943262 2.9333741120464989 7.8239594175677833 -1.7593066654692933 4.3242031700352417 1.7024021200602282 -6.938761462840608 -3.7391301948859743 -5.89040720167948 0 0
        </DataArray>
        <DataArray type="Float32" Name="u" NumberOfComponents="1">
          0 0.1111111111111111 0.22222222222222221 0.33333333333333331 0.44444444444444442 0.55555555555555558 0.66666666666666663 0.77777777777777779 0.88888888888888884 1
        </DataArray>
      </PointData>
      <CellData Scalars="P">
        <DataArray type="Float32" Name="P" NumberOfComponents="1">
          0.0087436388288260267 0.00099995744466886433 0.023951118678079059 -0.016279279401972779 0.013299123475613798 -0.012738887681280972 0.0056020325998516491 -0.0011712516157739306 -0.018457741068943045
        </DataArray>
      </CellData>
      <Points>
        <DataArray type="Float32" NumberOfComponents="3" format="ascii">
          -0.28503070256372448 0.22108657356282752 0
          -0.18245491466936595 0.17837738029540948 0
          -0.088401193967805172 0.2375351444915284 0
          0.016028694768731228 0.27548525205945518 0
          0.10333113399644737 0.20675324285790908 0
          0.17737406144377982 0.12390760870067005 0
          0.28763230897486725 0.13765494649858603 0
          0.37616980508696557 0.20478763674000447 0
          0.48572545756543767 0.18625612838344771 0
          0.54911805514586576 0.095003393381463103 0
        </DataArray>
      </Points>
      <Cells>
        <DataArray type="Int32" Name="connectivity" format="ascii">
          0 1 1 2 2 3 3 4 4 5 5 6 6 7 7 8 8 9 
        </DataArray>
        <DataArray type="Int32" Name="offsets" format="ascii">
          2 4 6 8 10 12 14 16 18 
        </DataArray>
        <DataArray type="Int32" Name="types" format="ascii">
          3 3 3 3 3 3 3 3 3         </DataArray>
      </Cells>
    </Piece>
  </UnstructuredGrid>
</VTKFile>
