<?xml version="1.0"?>
<VTKFile type="UnstructuredGrid" version="0.1" byte_order="LittleEndian">
  <UnstructuredGrid>
    <Piece NumberOfPoints="10" NumberOfCells="9">
      <PointData Scalars="W">
        <DataArray type="Float32" Name="W" NumberOfComponents="2">
          0 0 -0.016372795620376975 0.026235196993792592 0.51614340875113185 -8.6107542474950058 -1.9813882300406991 -2.7272268849552344 2.8100424896597844 7.2723354040576726 -2.4931405966982316 5.5347895192452805 2.4904630401828856 -5.5017793499346297 -2.803070194143515 -7.3013422037282885 1.9632493784664964 2.6939194256771142 0 0
        </DataArray>
        <DataArray type="Float32" Name="u" NumberOfComponents="1">
          0 0.1111111111111111 0.22222222222222221 0.33333333333333331 0.44444444444444442 0.55555555555555558 0.66666666666666663 0.77777777777777779 0.88888888888888884 1
        </DataArray>
      </PointData>
      <CellData Scalars="P">
        <DataArray type="Float32" Name="P" NumberOfComponents="1">
          0.0017736012114650235 0.0054507597720249009 0.014548551397444287 0.072476517542375093 -0.028428792869470792 -0.081957554164886842 -0.019308647396312474 0.0059330610823319502 -0.0015097278304420107
        </DataArray>
      </CellData>
      <Points>
        <DataArray type="Float32" NumberOfComponents="3" format="ascii">
          0.074441435909762779 0.12218951514955381 0
          0.16880401855653976 0.18085405653295553 0
          0.26296415947322122 0.23984230061267742 0
          0.36349669081705377 0.1925241590984863 0
          0.43956725115828016 0.11153646787870736 0
          0.55033085360476497 0.1203315301726829 0
          0.63031367765427793 0.19745760295639073 0
          0.74104363924119943 0.2066603191064135 0
          0.81716712124393542 0.1257226522644351 0
          0.91752924330207319 0.078043012640515358 0
        </DataArray>
      </Points>
      <Cells>
        <DataArray type="Int32" Name="connectivity" format="ascii">
          0 1 1 2 2 3 3 4 4 5 5 6 6 7 7 8 8 9 
        </DataArray>
        <DataArray type="Int32" Name="offsets" format="ascii">
          2 4 6 8 10 12 14 16 18 
        </DataArray>
        <DataArray type="Int32" Name="types" format="ascii">
          3 3 3 3 3 3 3 3 3         </DataArray>
      </Cells>
    </Piece>
  </UnstructuredGrid>
</VTKFile>
