<?xml version="1.0"?>
<VTKFile type="UnstructuredGrid" version="0.1" byte_order="LittleEndian">
  <UnstructuredGrid>
    <Piece NumberOfPoints="10" NumberOfCells="9">
      <PointData Scalars="W">
        <DataArray type="Float32" Name="W" NumberOfComponents="2">
          0 0 1.7835283339685071 -8.129005785009225 -2.4203972708089689 -4.1059110767949045 2.7334698590836175 6.5354108962174982 -2.8124458445412075 6.4606909307561748 2.4890612357867998 -4.1438658865501452 -1.7367803609521066 -8.1228930632922154 0.99814530581439631 1.4890109424295972 -0.15137080675709813 8.7555572140606763 0 0
        </DataArray>
        <DataArray type="Float32" Name="u" NumberOfComponents="1">
          0 0.1111111111111111 0.22222222222222221 0.33333333333333331 0.44444444444444442 0.55555555555555558 0.66666666666666663 0.77777777777777779 0.88888888888888884 1
        </DataArray>
      </PointData>
      <CellData Scalars="P">
        <DataArray type="Float32" Name="P" NumberOfComponents="1">
          0.018099432127618852 -0.016850838328227404 -0.0057298911423448191 7.6244432311634333e-06 0.0058278534833266392 0.016537387189226236 -0.01583318154746808 0.013900411574084316 -0.012307510934319173
        </DataArray>
      </CellData>
      <Points>
        <DataArray type="Float32" NumberOfComponents="3" format="ascii">
          -0.22115122906198473 0.17357385382919935 0
          -0.13592786299792459 0.24486707163752211 0
          -0.02868495991312494 0.21580128746953928 0
          0.048675621326548776 0.13604523351329018 0
          0.15978371636900723 0.13697362721141484 0
          0.23616927812353639 0.21766397585322303 0
          0.3432848662798777 0.24719548339026423 0
          0.42895805000093751 0.17644347573297509 0
          0.52695440597368437 0.12407427519849241 0
          0.62308195852504156 0.17979959092680506 0
        </DataArray>
      </Points>
      <Cells>
        <DataArray type="Int32" Name="connectivity" format="ascii">
          0 1 1 2 2 3 3 4 4 5 5 6 6 7 7 8 8 9 
        </DataArray>
        <DataArray type="Int32" Name="offsets" format="ascii">
          2 4 6 8 10 12 14 16 18 
        </DataArray>
        <DataArray type="Int32" Name="types" format="ascii">
          3 3 3 3 3 3 3 3 3         </DataArray>
      </Cells>
    </Piece>
  </UnstructuredGrid>
</VTKFile>
