<?xml version="1.0"?>
<VTKFile type="UnstructuredGrid" version="0.1" byte_order="LittleEndian">
  <UnstructuredGrid>
    <Piece NumberOfPoints="10" NumberOfCells="9">
      <PointData Scalars="W">
        <DataArray type="Float32" Name="W" NumberOfComponents="2">
          0 0 1.2621091580006563 -8.4476754692163638 -2.0525277737750223 -3.2605328481110898 2.54737174082284 7.1495274551929295 -2.8481972949415062 5.7697051124494072 2.7318386793653522 -4.9410237434712396 -2.1632607330006044 -7.6941499119856092 1.5499162848657768 2.3905042051746213 -0.77473337738911641 8.6788385664132033 0 0
        </DataArray>
        <DataArray type="Float32" Name="u" NumberOfComponents="1">
          0 0.1111111111111111 0.22222222222222221 0.33333333333333331 0.44444444444444442 0.55555555555555558 0.66666666666666663 0.77777777777777779 0.88888888888888884 1
        </DataArray>
      </PointData>
      <CellData Scalars="P">
        <DataArray type="Float32" Name="P" NumberOfComponents="1">
          0.016346397457392515 -0.018549013093814515 0.00037951409334689517 -0.0046573325576988846 0.0033601861015324212 0.010789467738811835 -0.0094937057899699816 0.016834944330735024 -0.014045980283357892
        </DataArray>
      </CellData>
      <Points>
        <DataArray type="Float32" NumberOfComponents="3" format="ascii">
          -0.069223603399287154 0.16934264797201359 0
          0.01971682504511206 0.2359412190969111 0
          0.12423933158038983 0.19824644071563555 0
          0.20342123307064791 0.1202982057717864 0
          0.31405308517132718 0.13061626913221974 0
          0.38952102234571656 0.21216545832942482 0
          0.49871631661963256 0.23271427539011752 0
          0.58120387270081431 0.15827287166537676 0
          0.68282678241245409 0.11334382068097071 0
          0.77488481273102594 0.17556208490445466 0
        </DataArray>
      </Points>
      <Cells>
        <DataArray type="Int32" Name="connectivity" format="ascii">
          0 1 1 2 2 3 3 4 4 5 5 6 6 7 7 8 8 9 
        </DataArray>
        <DataArray type="Int32" Name="offsets" format="ascii">
          2 4 6 8 10 12 14 16 18 
        </DataArray>
        <DataArray type="Int32" Name="types" format="ascii">
          3 3 3 3 3 3 3 3 3         </DataArray>
      </Cells>
    </Piece>
  </UnstructuredGrid>
</VTKFile>
