<?xml version="1.0"?>
<VTKFile type="UnstructuredGrid" version="0.1" byte_order="LittleEndian">
  <UnstructuredGrid>
    <Piece NumberOfPoints="10" NumberOfCells="9">
      <PointData Scalars="W">
        <DataArray type="Float32" Name="W" NumberOfComponents="2">
          0 0 0.3724573793121051 -8.7027004200265328 -1.3116358381617943 -1.9458537390137693 2.0432273523045223 7.9087241189500066 -2.6470108215007699 4.6323964939727116 2.8442738817240918 -6.0418241368992494 -2.5955980123249605 -6.8784132039869128 2.2131330472303006 3.6907682927341012 -1.6245720677957285 8.3341948476780701 0 0
        </DataArray>
        <DataArray type="Float32" Name="u" NumberOfComponents="1">
          0 0.1111111111111111 0.22222222222222221 0.33333333333333331 0.44444444444444442 0.55555555555555558 0.66666666666666663 0.77777777777777779 0.88888888888888884 1
        </DataArray>
      </PointData>
      <CellData Scalars="P">
        <DataArray type="Float32" Name="P" NumberOfComponents="1">
          0.013397523313791385 -0.016337630196024574 0.011023077967719279 -0.012986973943781396 -0.0015969330837645812 0.0023579530982737297 -0.00015364367292259947 0.016883236421608598 -0.016667258917076003
        </DataArray>
      </CellData>
      <Points>
        <DataArray type="Float32" NumberOfComponents="3" format="ascii">
          -0.10958980182477412 0.18289820835649395 0
          -0.014743216933144418 0.240776788148896 0
          0.084701752558965865 0.1912134284613993 0
          0.1679531894239443 0.11762723535868384 0
          0.27643041257087086 0.14168040492191078 0
          0.35222756847911202 0.22292370382239848 0
          0.46314021172073 0.22957632546741241 0
          0.54200748266878607 0.15130980772120192 0
          0.64819818479507951 0.11860832327934265 0
          0.73433186135652451 0.1887990999891643 0
        </DataArray>
      </Points>
      <Cells>
        <DataArray type="Int32" Name="connectivity" format="ascii">
          0 1 1 2 2 3 3 4 4 5 5 6 6 7 7 8 8 9 
        </DataArray>
        <DataArray type="Int32" Name="offsets" format="ascii">
          2 4 6 8 10 12 14 16 18 
        </DataArray>
        <DataArray type="Int32" Name="types" format="ascii">
          3 3 3 3 3 3 3 3 3         </DataArray>
      </Cells>
    </Piece>
  </UnstructuredGrid>
</VTKFile>
