<?xml version="1.0"?>
<VTKFile type="UnstructuredGrid" version="0.1" byte_order="LittleEndian">
  <UnstructuredGrid>
    <Piece NumberOfPoints="10" NumberOfCells="9">
      <PointData Scalars="W">
        <DataArray type="Float32" Name="W" NumberOfComponents="2">
          0 0 -1.4787310346718452 7.5199667376942276 1.5292276551969968 -3.3547474233070718 -2.3516834158242106 -8.2751073738678667 0.24308247510367068 0.25807467588383926 2.0049084930067518 8.4314748456866564 -1.2800494175307027 2.736533289772777 1.1815061378430625 -7.8508599966263608 -3.4707311917442083 -4.6870669937545246 0 0
        </DataArray>
        <DataArray type="Float32" Name="u" NumberOfComponents="1">
          0 0.1111111111111111 0.22222222222222221 0.33333333333333331 0.44444444444444442 0.55555555555555558 0.66666666666666663 0.77777777777777779 0.88888888888888884 1
        </DataArray>
      </PointData>
      <CellData Scalars="P">
        <DataArray type="Float32" Name="P" NumberOfComponents="1">
          0.0081130342809475255 0.0025442747833304006 0.020625853369486035 0.0029889440770109682 0.033689297746220509 -0.022034028672784145 -4.6562334927574071e-05 -0.0087833966482412842 -0.01584825455681866
        </DataArray>
      </CellData>
      <Points>
        <DataArray type="Float32" NumberOfComponents="3" format="ascii">
          -0.05609931400196852 0.19222321695649808 0
          0.051676839585545573 0.16520127914953001 0
          0.14119618219029989 0.23101918761931506 0
          0.2495955039377547 0.25542037615321406 0
          0.32896115344451982 0.17765885808858109 0
          0.41132799493843158 0.10308333395025712 0
          0.51844730279348883 0.13260133225593365 0
          0.6097627924660034 0.19590369315116746 0
          0.71566544709602331 0.16228117152745286 0
          0.77871870971413559 0.070793647073822283 0
        </DataArray>
      </Points>
      <Cells>
        <DataArray type="Int32" Name="connectivity" format="ascii">
          0 1 1 2 2 3 3 4 4 5 5 6 6 7 7 8 8 9 
        </DataArray>
        <DataArray type="Int32" Name="offsets" format="ascii">
          2 4 6 8 10 12 14 16 18 
        </DataArray>
        <DataArray type="Int32" Name="types" format="ascii">
          3 3 3 3 3 3 3 3 3         </DataArray>
      </Cells>
    </Piece>
  </UnstructuredGrid>
</VTKFile>
