<?xml version="1.0"?>
<VTKFile type="UnstructuredGrid" version="0.1" byte_order="LittleEndian">
  <UnstructuredGrid>
    <Piece NumberOfPoints="10" NumberOfCells="9">
      <PointData Scalars="W">
        <DataArray type="Float32" Name="W" NumberOfComponents="2">
          0 0 0.48108404808404992 8.6478623939020025 -0.13494653586848979 0.27018912367674519 -0.16189276347781459 -8.6089964000675483 -2.4187446065639464 -2.7451039454249107 3.5875505808058028 6.7723762292571825 -1.8855570087017526 5.9510300076696581 1.8956219231140328 -5.5416466178600094 -3.511863816450334 -7.1165986174559519 0 0
        </DataArray>
        <DataArray type="Float32" Name="u" NumberOfComponents="1">
          0 0.1111111111111111 0.22222222222222221 0.33333333333333331 0.44444444444444442 0.55555555555555558 0.66666666666666663 0.77777777777777779 0.88888888888888884 1
        </DataArray>
      </PointData>
      <CellData Scalars="P">
        <DataArray type="Float32" Name="P" NumberOfComponents="1">
          0.010342342417548542 -0.0077221174620629275 0.021499337422566527 -0.020954844384772912 -0.0014961809142939814 -0.0055017487561420646 0.0068117888144815387 0.0099601772632021256 -0.018809719472545863
        </DataArray>
      </CellData>
      <Points>
        <DataArray type="Float32" NumberOfComponents="3" format="ascii">
          -0.20554773502284654 0.22898718199762358 0
          -0.11126487320416166 0.17019447326849854 0
          -0.011042837656536476 0.21816668600267422 0
          0.08751310966109685 0.26947456065809472 0
          0.18407064108174401 0.21449741055412458 0
          0.25076644120244224 0.12563022419338798 0
          0.36175399075978548 0.12037305531465188 0
          0.44946209183221247 0.18858572619036779 0
          0.5605738364315842 0.18838275125365622 0
          0.62832832036271835 0.10032003599739281 0
        </DataArray>
      </Points>
      <Cells>
        <DataArray type="Int32" Name="connectivity" format="ascii">
          0 1 1 2 2 3 3 4 4 5 5 6 6 7 7 8 8 9 
        </DataArray>
        <DataArray type="Int32" Name="offsets" format="ascii">
          2 4 6 8 10 12 14 16 18 
        </DataArray>
        <DataArray type="Int32" Name="types" format="ascii">
          3 3 3 3 3 3 3 3 3         </DataArray>
      </Cells>
    </Piece>
  </UnstructuredGrid>
</VTKFile>
