<?xml version="1.0"?>
<VTKFile type="UnstructuredGrid" version="0.1" byte_order="LittleEndian">
  <UnstructuredGrid>
    <Piece NumberOfPoints="10" NumberOfCells="9">
      <PointData Scalars="W">
        <DataArray type="Float32" Name="W" NumberOfComponents="2">
          0 0 -2.0826911261456238 5.3364996893095586 2.0900473363732774 -6.0065189174859768 -3.4041598419913308 -6.8150082543252815 2.4085980206362709 2.9308137761565023 -0.17632714105456088 8.5667209514701792 0.23985130198361476 -0.4515101254061582 -0.38652363466933698 -8.6897348160626624 -1.9069613227818225 -2.2108659474701411 0 0
        </DataArray>
        <DataArray type="Float32" Name="u" NumberOfComponents="1">
          0 0.1111111111111111 0.22222222222222221 0.33333333333333331 0.44444444444444442 0.55555555555555558 0.66666666666666663 0.77777777777777779 0.88888888888888884 1
        </DataArray>
      </PointData>
      <CellData Scalars="P">
        <DataArray type="Float32" Name="P" NumberOfComponents="1">
          0.0050605538028789983 -0.0047586360779721115 0.016772368140046665 0.055337698825218599 0.052604745824894432 -0.049723573531587968 -0.0096380445054675586 -0.011781648210401388 -0.0075474783709925369
        </DataArray>
      </CellData>
      <Points>
        <DataArray type="Float32" NumberOfComponents="3" format="ascii">
          -0.054022879369092169 0.16822184416442104 0
          0.056960167800805282 0.17357624322918017 0
          0.14222983961193642 0.24481360987415415 0
          0.25330332476055173 0.24189617513392839 0
          0.32234935475574578 0.15484254175953507 0
          0.42113211862395589 0.1039715562746107 0
          0.51773762059278361 0.15886398849202504 0
          0.61730411270846797 0.20818208934145549 0
          0.71209881928253227 0.15021862456855617 0
          0.78335042294415469 0.064960485389750675 0
        </DataArray>
      </Points>
      <Cells>
        <DataArray type="Int32" Name="connectivity" format="ascii">
          0 1 1 2 2 3 3 4 4 5 5 6 6 7 7 8 8 9 
        </DataArray>
        <DataArray type="Int32" Name="offsets" format="ascii">
          2 4 6 8 10 12 14 16 18 
        </DataArray>
        <DataArray type="Int32" Name="types" format="ascii">
          3 3 3 3 3 3 3 3 3         </DataArray>
      </Cells>
    </Piece>
  </UnstructuredGrid>
</VTKFile>
