<?xml version="1.0"?>
<VTKFile type="UnstructuredGrid" version="0.1" byte_order="LittleEndian">
  <UnstructuredGrid>
    <Piece NumberOfPoints="10" NumberOfCells="9">
      <PointData Scalars="W">
        <DataArray type="Float32" Name="W" NumberOfComponents="2">
          0 0 2.1470505603004151 2.5345787146498613 0.1459486574805593 8.6331410459155808 -0.0076127291129300841 0.014470249879221582 -0.13417233869660278 -8.6402631974607935 -2.1995576740991343 -2.5809130004019072 3.3725486908102549 7.0175448022717237 -2.0455830872133016 5.7188940465079563 2.0454970633583573 -5.6737274470348584 0 0
        </DataArray>
        <DataArray type="Float32" Name="u" NumberOfComponents="1">
          0 0.1111111111111111 0.22222222222222221 0.33333333333333331 0.44444444444444442 0.55555555555555558 0.66666666666666663 0.77777777777777779 0.88888888888888884 1
        </DataArray>
      </PointData>
      <CellData Scalars="P">
        <DataArray type="Float32" Name="P" NumberOfComponents="1">
          0.0094680753385333015 0.013105491151557786 0.0065185299743661263 0.042829900947003979 -0.052868996069729265 -0.047865157570082403 -0.01777171644369922 0.0038152628961831206 -0.006265394190834642
        </DataArray>
      </CellData>
      <Points>
        <DataArray type="Float32" NumberOfComponents="3" format="ascii">
          0.036546370460596736 0.27638514389710123 0
          0.10661790424617314 0.19015460419967586 0
          0.20319671497807906 0.13521514265693688 0
          0.30157716108423804 0.1868585781483981 0
          0.3998638345589352 0.2386807719895773 0
          0.4964943155685459 0.18383160930440182 0
          0.56596890315298976 0.09711956924313285 0
          0.67708067346919354 0.097044241831165501 0
          0.76293757548575847 0.16757277195136541 0
          0.8740486889764979 0.16805494894417639 0
        </DataArray>
      </Points>
      <Cells>
        <DataArray type="Int32" Name="connectivity" format="ascii">
          0 1 1 2 2 3 3 4 4 5 5 6 6 7 7 8 8 9 
        </DataArray>
        <DataArray type="Int32" Name="offsets" format="ascii">
          2 4 6 8 10 12 14 16 18 
        </DataArray>
        <DataArray type="Int32" Name="types" format="ascii">
          3 3 3 3 3 3 3 3 3         </DataArray>
      </Cells>
    </Piece>
  </UnstructuredGrid>
</VTKFile>
