<?xml version="1.0"?>
<VTKFile type="UnstructuredGrid" version="0.1" byte_order="LittleEndian">
  <UnstructuredGrid>
    <Piece NumberOfPoints="10" NumberOfCells="9">
      <PointData Scalars="W">
        <DataArray type="Float32" Name="W" NumberOfComponents="2">
          0 0 2.4108630357070928 -7.41906543913802 -2.7483878789967524 -5.3484542234232881 2.7593573737202033 5.4327985900662537 -2.4858437581399739 7.4010565525165735 1.8638223385553627 -2.822183819118889 -0.90249779324278534 -8.5745562577515191 0.034859573198053231 0.050849844717290094 0.82818967034376556 8.6169369520712191 0 0
        </DataArray>
        <DataArray type="Float32" Name="u" NumberOfComponents="1">
          0 0.1111111111111111 0.22222222222222221 0.33333333333333331 0.44444444444444442 0.55555555555555558 0.66666666666666663 0.77777777777777779 0.88888888888888884 1
        </DataArray>
      </PointData>
      <CellData Scalars="P">
        <DataArray type="Float32" Name="P" NumberOfComponents="1">
          0.019783471264207739 -0.0099537939321384643 -0.01110300084348133 0.0053771214785296711 0.0037118664389244015 0.022204910179611098 -0.022981140831998058 0.0065600622590919859 -0.010219360164365008
        </DataArray>
      </CellData>
      <Points>
        <DataArray type="Float32" NumberOfComponents="3" format="ascii">
          0.010348474464940562 0.14610433635424533 0
          0.090698897748378179 0.22284754319232197 0
          0.20081392823468633 0.20799673372124924 0
          0.27699727941220581 0.127115487106299 0
          0.38724775860403604 0.11330598127352406 0
          0.46680791390465437 0.19086815883806868 0
          0.56937888209952825 0.23358860806510498 0
          0.66080753566595474 0.17044925387266863 0
          0.75266659477971554 0.10793765548970868 0
          0.85475057580800207 0.15180916599564981 0
        </DataArray>
      </Points>
      <Cells>
        <DataArray type="Int32" Name="connectivity" format="ascii">
          0 1 1 2 2 3 3 4 4 5 5 6 6 7 7 8 8 9 
        </DataArray>
        <DataArray type="Int32" Name="offsets" format="ascii">
          2 4 6 8 10 12 14 16 18 
        </DataArray>
        <DataArray type="Int32" Name="types" format="ascii">
          3 3 3 3 3 3 3 3 3         </DataArray>
      </Cells>
    </Piece>
  </UnstructuredGrid>
</VTKFile>
