<?xml version="1.0"?>
<VTKFile type="UnstructuredGrid" version="0.1" byte_order="LittleEndian">
  <UnstructuredGrid>
    <Piece NumberOfPoints="10" NumberOfCells="9">
      <PointData Scalars="W">
        <DataArray type="Float32" Name="W" NumberOfComponents="2">
          0 0 2.627260023120781 -6.9527692634938862 -2.7918031901705169 -5.9547231903477114 2.6399933763017844 4.7904058348250151 -2.1869282376548971 7.8158024092866976 1.4308223801268516 -2.0951437137535445 -0.40888888435512655 -8.6948358284809011 -0.48794554715183802 -0.71356654601250102 1.3134628328002411 8.4174430501331958 0 0
        </DataArray>
        <DataArray type="Float32" Name="u" NumberOfComponents="1">
          0 0.1111111111111111 0.22222222222222221 0.33333333333333331 0.44444444444444442 0.55555555555555558 0.66666666666666663 0.77777777777777779 0.88888888888888884 1
        </DataArray>
      </PointData>
      <CellData Scalars="P">
        <DataArray type="Float32" Name="P" NumberOfComponents="1">
          0.019947296263191416 -0.0051124684097747048 -0.011414169004436018 0.0078171068686412899 -0.0013853480844537853 0.021858049955898323 -0.02461488334096721 0.0026281183355874498 -0.0095423809127616575
        </DataArray>
      </CellData>
      <Points>
        <DataArray type="Float32" NumberOfComponents="3" format="ascii">
          -0.027455220106896366 0.14382737596369496 0
          0.050990348635508609 0.22251656594469008 0
          0.16187214757801408 0.2153686356555298 0
          0.23828627263924282 0.13470537249691605 0
          0.34729387071060919 0.11318299093865322 0
          0.42930154573786877 0.18815277835951738 0
          0.52897419450232752 0.23725663519305165 0
          0.62359865489216137 0.17901570744521747 0
          0.71219894880514356 0.11196531012302025 0
          0.81701538008344443 0.14883504905202719 0
        </DataArray>
      </Points>
      <Cells>
        <DataArray type="Int32" Name="connectivity" format="ascii">
          0 1 1 2 2 3 3 4 4 5 5 6 6 7 7 8 8 9 
        </DataArray>
        <DataArray type="Int32" Name="offsets" format="ascii">
          2 4 6 8 10 12 14 16 18 
        </DataArray>
        <DataArray type="Int32" Name="types" format="ascii">
          3 3 3 3 3 3 3 3 3         </DataArray>
      </Cells>
    </Piece>
  </UnstructuredGrid>
</VTKFile>
