<?xml version="1.0"?>
<VTKFile type="UnstructuredGrid" version="0.1" byte_order="LittleEndian">
  <UnstructuredGrid>
    <Piece NumberOfPoints="10" NumberOfCells="9">
      <PointData Scalars="W">
        <DataArray type="Float32" Name="W" NumberOfComponents="2">
          0 0 1.5478578780205567 1.7928167881782655 0.65055658842644948 8.6925674529706427 -0.49351195108454177 0.92700726374249565 0.48377121656654909 -8.4653362572648181 -2.6688695843341264 -3.344947997343231 3.4787453828989943 6.4916238120796752 -2.0466188575509285 6.3741391742816758 2.0312369580535168 -4.9184691041596604 0 0
        </DataArray>
        <DataArray type="Float32" Name="u" NumberOfComponents="1">
          0 0.1111111111111111 0.22222222222222221 0.33333333333333331 0.44444444444444442 0.55555555555555558 0.66666666666666663 0.77777777777777779 0.88888888888888884 1
        </DataArray>
      </PointData>
      <CellData Scalars="P">
        <DataArray type="Float32" Name="P" NumberOfComponents="1">
          0.0068092039685242346 0.011994823820830757 0.0090814347690281079 0.051956324264785414 -0.051274184047137947 -0.061667657663136685 -0.018029486971791728 0.0058243675396182672 -0.0048786514273732118
        </DataArray>
      </CellData>
      <Points>
        <DataArray type="Float32" NumberOfComponents="3" format="ascii">
          0.03436847310002121 0.2764381882084998 0
          0.10818534943837765 0.19339108298848035 0
          0.20111186225887842 0.13247757033011631 0
          0.30206991944452333 0.17888060626934943 0
          0.3969352579960127 0.23672830798936109 0
          0.49777359930716142 0.19006431063072238 0
          0.56566189593564697 0.1021048679295621 0
          0.67649844894426381 0.094289150142254294 0
          0.76206736283134602 0.16516679111145441 0
          0.87271445155549765 0.17532239849653269 0
        </DataArray>
      </Points>
      <Cells>
        <DataArray type="Int32" Name="connectivity" format="ascii">
          0 1 1 2 2 3 3 4 4 5 5 6 6 7 7 8 8 9 
        </DataArray>
        <DataArray type="Int32" Name="offsets" format="ascii">
          2 4 6 8 10 12 14 16 18 
        </DataArray>
        <DataArray type="Int32" Name="types" format="ascii">
          3 3 3 3 3 3 3 3 3         </DataArray>
      </Cells>
    </Piece>
  </UnstructuredGrid>
</VTKFile>
