<?xml version="1.0"?>
<VTKFile type="UnstructuredGrid" version="0.1" byte_order="LittleEndian">
  <UnstructuredGrid>
    <Piece NumberOfPoints="10" NumberOfCells="9">
      <PointData Scalars="W">
        <DataArray type="Float32" Name="W" NumberOfComponents="2">
          0 0 -0.1316677278190144 -0.15530932963115374 1.8449903572891946 8.4044983522626673 -1.6254999250479174 3.1269785181174021 1.7812481458761404 -7.5235530082277799 -3.2924781105805581 -5.229161582234144 3.2324804017164417 4.9686213926761651 -1.6594770285195986 7.706309298401675 1.4899029704667899 -2.8073937795836295 0 0
        </DataArray>
        <DataArray type="Float32" Name="u" NumberOfComponents="1">
          0 0.1111111111111111 0.22222222222222221 0.33333333333333331 0.44444444444444442 0.55555555555555558 0.66666666666666663 0.77777777777777779 0.88888888888888884 1
        </DataArray>
      </PointData>
      <CellData Scalars="P">
        <DataArray type="Float32" Name="P" NumberOfComponents="1">
          0.00153945312866977 0.0048457684247270264 0.014884092776535069 0.073676242912201054 -0.025976258965085337 -0.082591358284105396 -0.019334070250715988 0.0056499691135108747 -0.0013276614034515267
        </DataArray>
      </CellData>
      <Points>
        <DataArray type="Float32" NumberOfComponents="3" format="ascii">
          -0.12606548105148954 0.28278558973786311 0
          -0.040504799591207938 0.21189694368323675 0
          0.043430036218299072 0.13909113964089106 0
          0.15014291409613462 0.17004528957712189 0
          0.23678749708948957 0.2396042498322635 0
          0.34542384900377676 0.2162788784045325 0
          0.41341102336412405 0.12839583850908576 0
          0.52130604846825013 0.10185385266834353 0
          0.6087131004934031 0.17045195288982176 0
          0.71451501148512653 0.20439097482259239 0
        </DataArray>
      </Points>
      <Cells>
        <DataArray type="Int32" Name="connectivity" format="ascii">
          0 1 1 2 2 3 3 4 4 5 5 6 6 7 7 8 8 9 
        </DataArray>
        <DataArray type="Int32" Name="offsets" format="ascii">
          2 4 6 8 10 12 14 16 18 
        </DataArray>
        <DataArray type="Int32" Name="types" format="ascii">
          3 3 3 3 3 3 3 3 3         </DataArray>
      </Cells>
    </Piece>
  </UnstructuredGrid>
</VTKFile>
