<?xml version="1.0"?>
<VTKFile type="UnstructuredGrid" version="0.1" byte_order="LittleEndian">
  <UnstructuredGrid>
    <Piece NumberOfPoints="10" NumberOfCells="9">
      <PointData Scalars="W">
        <DataArray type="Float32" Name="W" NumberOfComponents="2">
          0 0 -0.25733432360906849 0.41769936736719793 0.71471618533245607 -8.5343525409274612 -2.2045944178613457 -3.064576371058652 2.9519140067482832 7.023584225719083 -2.4750840786312991 5.8536014662399936 2.4254347981969233 -5.1986739169823801 -2.7158786486265951 -7.5048960929431061 1.7507465260779764 2.3325695928310592 0 0
        </DataArray>
        <DataArray type="Float32" Name="u" NumberOfComponents="1">
          0 0.1111111111111111 0.22222222222222221 0.33333333333333331 0.44444444444444442 0.55555555555555558 0.66666666666666663 0.77777777777777779 0.88888888888888884 1
        </DataArray>
      </PointData>
      <CellData Scalars="P">
        <DataArray type="Float32" Name="P" NumberOfComponents="1">
          0.0011961421329326918 0.00382200632467215 0.015414251412703977 0.075542617388071165 -0.021722702287695701 -0.083396260284429827 -0.019337513470186366 0.005098887489862136 -0.0010564536847179455
        </DataArray>
      </CellData>
      <Points>
        <DataArray type="Float32" NumberOfComponents="3" format="ascii">
          0.034952926196551201 0.12674452626165303 0
          0.13110641208357809 0.18242527248055873 0
          0.22408251248771927 0.24326260559640525 0
          0.32588258343873239 0.19873682253107253 0
          0.40046499306407773 0.11637669207967123 0
          0.51149199821907865 0.12072820987523304 0
          0.59196113939993578 0.19734677480857016 0
          0.7023745732912271 0.20978403855221003 0
          0.77925799584652555 0.12956786525351296 0
          0.87775649866204231 0.078148581056712102 0
        </DataArray>
      </Points>
      <Cells>
        <DataArray type="Int32" Name="connectivity" format="ascii">
          0 1 1 2 2 3 3 4 4 5 5 6 6 7 7 8 8 9 
        </DataArray>
        <DataArray type="Int32" Name="offsets" format="ascii">
          2 4 6 8 10 12 14 16 18 
        </DataArray>
        <DataArray type="Int32" Name="types" format="ascii">
          3 3 3 3 3 3 3 3 3         </DataArray>
      </Cells>
    </Piece>
  </UnstructuredGrid>
</VTKFile>
