<?xml version="1.0"?>
<VTKFile type="UnstructuredGrid" version="0.1" byte_order="LittleEndian">
  <UnstructuredGrid>
    <Piece NumberOfPoints="10" NumberOfCells="9">
      <PointData Scalars="W">
        <DataArray type="Float32" Name="W" NumberOfComponents="2">
          0 0 -0.099198859380200968 0.15959855226436509 0.58487957221836784 -8.586775189712581 -2.0590855857155144 -2.843049680553738 2.8610525775729205 7.1891353232874282 -2.4899701237661143 5.6447738612312603 2.4704918248409151 -5.3994787066907355 -2.7752660618698797 -7.3723500413248155 1.8929052313017414 2.5706958927747228 0 0
        </DataArray>
        <DataArray type="Float32" Name="u" NumberOfComponents="1">
          0 0.1111111111111111 0.22222222222222221 0.33333333333333331 0.44444444444444442 0.55555555555555558 0.66666666666666663 0.77777777777777779 0.88888888888888884 1
        </DataArray>
      </PointData>
      <CellData Scalars="P">
        <DataArray type="Float32" Name="P" NumberOfComponents="1">
          0.0015598917567409183 0.0049011493854982545 0.014854082017089923 0.073569476997257549 -0.026202627855357277 -0.082538390618128996 -0.019332454466457281 0.0056772290827344215 -0.0013436503854377235
        </DataArray>
      </CellData>
      <Points>
        <DataArray type="Float32" NumberOfComponents="3" format="ascii">
          -0.23246202236291219 0.14536623579206881 0
          -0.13748627742739866 0.2030328446797918 0
          -0.043735556085547064 0.26266961447863246 0
          0.057236172752547831 0.21629604916344611 0
          0.13278668346281103 0.13482302683603811 0
          0.24366000981001137 0.1421055616590953 0
          0.32379169625263526 0.21907696724778991 0
          0.43442395331816175 0.22938799218140485 0
          0.51079300133737737 0.14868197972994315 0
          0.61053222108473681 0.099712705559517473 0
        </DataArray>
      </Points>
      <Cells>
        <DataArray type="Int32" Name="connectivity" format="ascii">
          0 1 1 2 2 3 3 4 4 5 5 6 6 7 7 8 8 9 
        </DataArray>
        <DataArray type="Int32" Name="offsets" format="ascii">
          2 4 6 8 10 12 14 16 18 
        </DataArray>
        <DataArray type="Int32" Name="types" format="ascii">
          3 3 3 3 3 3 3 3 3         </DataArray>
      </Cells>
    </Piece>
  </UnstructuredGrid>
</VTKFile>
