<?xml version="1.0"?>
<VTKFile type="UnstructuredGrid" version="0.1" byte_order="LittleEndian">
  <UnstructuredGrid>
    <Piece NumberOfPoints="10" NumberOfCells="9">
      <PointData Scalars="W">
        <DataArray type="Float32" Name="W" NumberOfComponents="2">
          0 0 -2.892506140898969 -5.3469561791400189 2.8843956361348195 5.2947925736894899 -2.2551501223196868 7.4914237538256616 1.7555955395896565 -2.8236599193672607 -1.1207869124266636 -8.5656816991042497 -0.01298414261944205 -0.017737048420556133 1.1396346775857809 8.5683121224147243 -1.8043248282944797 2.8852188705511188 0 0
        </DataArray>
        <DataArray type="Float32" Name="u" NumberOfComponents="1">
          0 0.1111111111111111 0.22222222222222221 0.33333333333333331 0.44444444444444442 0.55555555555555558 0.66666666666666663 0.77777777777777779 0.88888888888888884 1
        </DataArray>
      </PointData>
      <CellData Scalars="P">
        <DataArray type="Float32" Name="P" NumberOfComponents="1">
          0.005736783180168974 -0.0036786346645003181 0.016762366945282818 0.04815667722304396 0.05308572704470034 -0.045072323982843047 -0.0084757470637231488 -0.012253446983693274 -0.0088759937200218984
        </DataArray>
      </CellData>
      <Points>
        <DataArray type="Float32" NumberOfComponents="3" format="ascii">
          0.045999633970122029 0.23052322139050266 0
          0.15584123901623151 0.21376833494527792 0
          0.22997172991327719 0.1310014873767788 0
          0.3397128318918049 0.11360255237957535 0
          0.42161185351252956 0.18869081034840032 0
          0.52518578172684716 0.22891919154719423 0
          0.61492237853055853 0.16339701135118059 0
          0.70449846157157991 0.097656010309492086 0
          0.80814443931754965 0.13769748793070596 0
          0.88951433798089785 0.21335901943132887 0
        </DataArray>
      </Points>
      <Cells>
        <DataArray type="Int32" Name="connectivity" format="ascii">
          0 1 1 2 2 3 3 4 4 5 5 6 6 7 7 8 8 9 
        </DataArray>
        <DataArray type="Int32" Name="offsets" format="ascii">
          2 4 6 8 10 12 14 16 18 
        </DataArray>
        <DataArray type="Int32" Name="types" format="ascii">
          3 3 3 3 3 3 3 3 3         </DataArray>
      </Cells>
    </Piece>
  </UnstructuredGrid>
</VTKFile>
