<?xml version="1.0"?>
<VTKFile type="UnstructuredGrid" version="0.1" byte_order="LittleEndian">
  <UnstructuredGrid>
    <Piece NumberOfPoints="10" NumberOfCells="9">
      <PointData Scalars="W">
        <DataArray type="Float32" Name="W" NumberOfComponents="2">
          0 0 -2.3428613377810334 -7.5819198923288242 1.6750002290125279 2.5146241190460472 -0.73694521052935169 8.6591936921217343 -0.22686094332651147 0.32407862188125286 1.1634729903714924 -8.4971854331756589 -1.9806464027616315 -3.1111454832297096 2.5083902397710056 7.242734216237559 -2.8287037438160891 5.6421757260711072 0 0
        </DataArray>
        <DataArray type="Float32" Name="u" NumberOfComponents="1">
          0 0.1111111111111111 0.22222222222222221 0.33333333333333331 0.44444444444444442 0.55555555555555558 0.66666666666666663 0.77777777777777779 0.88888888888888884 1
        </DataArray>
      </PointData>
      <CellData Scalars="P">
        <DataArray type="Float32" Name="P" NumberOfComponents="1">
          0.0083595941429042975 0.0026988728228574594 0.022166784552477881 -0.0059988288993132336 0.025642410940219639 -0.017926163048401538 0.0023440118492964943 -0.0062704566300494776 -0.017081432001211878
        </DataArray>
      </CellData>
      <Points>
        <DataArray type="Float32" NumberOfComponents="3" format="ascii">
          -0.22712375598731252 0.22574038547933833 0
          -0.11737608895099504 0.24309918258843566 0
          -0.036553523562690218 0.16685330001678797 0
          0.064948599395412573 0.12165214199665846 0
          0.15735235587862503 0.18335565755078689 0
          0.24695536268957716 0.24906019516850272 0
          0.35092271383131052 0.2098600132936809 0
          0.43043681980366644 0.13225070352623988 0
          0.54091953815528393 0.14405835491025301 0
          0.61647909334243522 0.22552265775777858 0
        </DataArray>
      </Points>
      <Cells>
        <DataArray type="Int32" Name="connectivity" format="ascii">
          0 1 1 2 2 3 3 4 4 5 5 6 6 7 7 8 8 9 
        </DataArray>
        <DataArray type="Int32" Name="offsets" format="ascii">
          2 4 6 8 10 12 14 16 18 
        </DataArray>
        <DataArray type="Int32" Name="types" format="ascii">
          3 3 3 3 3 3 3 3 3         </DataArray>
      </Cells>
    </Piece>
  </UnstructuredGrid>
</VTKFile>
