<?xml version="1.0"?>
<VTKFile type="UnstructuredGrid" version="0.1" byte_order="LittleEndian">
  <UnstructuredGrid>
    <Piece NumberOfPoints="10" NumberOfCells="9">
      <PointData Scalars="W">
        <DataArray type="Float32" Name="W" NumberOfComponents="2">
          0 0 -0.62666318917927655 1.0449858602492705 1.011364255739331 -8.3746518881861522 -2.5300995984071322 -3.5892087482699822 3.1284313544905467 6.5979240150293457 -2.3917129069052998 6.3382852198803974 2.2821159385001946 -4.6948173849245949 -2.5419521378872028 -7.8003377905067275 1.3743992467101052 1.7560936257804518 0 0
        </DataArray>
        <DataArray type="Float32" Name="u" NumberOfComponents="1">
          0 0.1111111111111111 0.22222222222222221 0.33333333333333331 0.44444444444444442 0.55555555555555558 0.66666666666666663 0.77777777777777779 0.88888888888888884 1
        </DataArray>
      </PointData>
      <CellData Scalars="P">
        <DataArray type="Float32" Name="P" NumberOfComponents="1">
          0.00059487816199823565 0.0011867458442431657 0.016574136712327315 0.079436873065043892 -0.010111418581805233 -0.08404999895820145 -0.019098173619064993 0.0032840524013916547 -0.00057538884467136511
        </DataArray>
      </CellData>
      <Points>
        <DataArray type="Float32" NumberOfComponents="3" format="ascii">
          -0.23510106562563166 0.14971670351760047 0
          -0.136160427075737 0.20027960800745839 0
          -0.044956956982298339 0.2637433791883938 0
          0.058732898756077831 0.22381571407309783 0
          0.13118642839595082 0.13957677356173576 0
          0.24226384249888608 0.13679424980371246 0
          0.32381268080084208 0.21226267219666092 0
          0.43353639042342229 0.22977025519503877 0
          0.51187738399857297 0.15097689950565629 0
          0.60718706828105717 0.093863415533396888 0
        </DataArray>
      </Points>
      <Cells>
        <DataArray type="Int32" Name="connectivity" format="ascii">
          0 1 1 2 2 3 3 4 4 5 5 6 6 7 7 8 8 9 
        </DataArray>
        <DataArray type="Int32" Name="offsets" format="ascii">
          2 4 6 8 10 12 14 16 18 
        </DataArray>
        <DataArray type="Int32" Name="types" format="ascii">
          3 3 3 3 3 3 3 3 3         </DataArray>
      </Cells>
    </Piece>
  </UnstructuredGrid>
</VTKFile>
