<?xml version="1.0"?>
<VTKFile type="UnstructuredGrid" version="0.1" byte_order="LittleEndian">
  <UnstructuredGrid>
    <Piece NumberOfPoints="10" NumberOfCells="9">
      <PointData Scalars="W">
        <DataArray type="Float32" Name="W" NumberOfComponents="2">
          0 0 2.5190746226078184 8.1501919621966028 -1.5694149523864125 3.5817482519995769 1.4905030831314714 -7.4135504100749765 -3.6721623016914213 -5.3321698422986792 3.4095828430288821 4.4417178489309084 -0.98383516772212809 7.9534479388792034 1.1592907402063883 -2.5340251431681509 -2.0045698447488278 -8.4847911101875049 0 0
        </DataArray>
        <DataArray type="Float32" Name="u" NumberOfComponents="1">
          0 0.1111111111111111 0.22222222222222221 0.33333333333333331 0.44444444444444442 0.55555555555555558 0.66666666666666663 0.77777777777777779 0.88888888888888884 1
        </DataArray>
      </PointData>
      <CellData Scalars="P">
        <DataArray type="Float32" Name="P" NumberOfComponents="1">
          0.016461815002394218 -0.018518563885233676 -3.0666141433029629e-05 -0.0043456304872049566 0.0035576174714198635 0.011150561132046141 -0.0098926636002481805 0.01671770595565162 -0.013936414785577608
        </DataArray>
      </CellData>
      <Points>
        <DataArray type="Float32" NumberOfComponents="3" format="ascii">
          0.032081633530110433 0.23558182481553705 0
          0.11000935390264839 0.15637930971109068 0
          0.21903740583097858 0.17779741595773496 0
          0.3086892034189414 0.24343471548304416 0
          0.41674310907969714 0.21754605495869919 0
          0.47946067203236636 0.12582807794603776 0
          0.58427280094140421 0.088946056967009274 0
          0.67693812393747743 0.15025558830866048 0
          0.78391625266278286 0.18028081922482872 0
          0.86614618158852374 0.10555442736229403 0
        </DataArray>
      </Points>
      <Cells>
        <DataArray type="Int32" Name="connectivity" format="ascii">
          0 1 1 2 2 3 3 4 4 5 5 6 6 7 7 8 8 9 
        </DataArray>
        <DataArray type="Int32" Name="offsets" format="ascii">
          2 4 6 8 10 12 14 16 18 
        </DataArray>
        <DataArray type="Int32" Name="types" format="ascii">
          3 3 3 3 3 3 3 3 3         </DataArray>
      </Cells>
    </Piece>
  </UnstructuredGrid>
</VTKFile>
