<?xml version="1.0"?>
<VTKFile type="UnstructuredGrid" version="0.1" byte_order="LittleEndian">
  <UnstructuredGrid>
    <Piece NumberOfPoints="10" NumberOfCells="9">
      <PointData Scalars="W">
        <DataArray type="Float32" Name="W" NumberOfComponents="2">
          0 0 0.14354916578385477 -8.7226608461036932 -1.1023196180271262 -1.6166584604172418 1.8827761562825631 8.0621966984296751 -2.5522634189728928 4.3372657484290187 2.8250525493583933 -6.2923356360712459 -2.6598043637921216 -6.6499844506554551 2.3395916693664547 3.9984449981487775 -1.8089214788012731 8.2102618121906055 0 0
        </DataArray>
        <DataArray type="Float32" Name="u" NumberOfComponents="1">
          0 0.1111111111111111 0.22222222222222221 0.33333333333333331 0.44444444444444442 0.55555555555555558 0.66666666666666663 0.77777777777777779 0.88888888888888884 1
        </DataArray>
      </PointData>
      <CellData Scalars="P">
        <DataArray type="Float32" Name="P" NumberOfComponents="1">
          0.012704660618647917 -0.015015266364454369 0.013518650121557675 -0.015000983041646062 -0.0024139200003240268 0.00056480120031220853 0.0017609139352305853 0.016065094360849359 -0.017227749765903654
        </DataArray>
      </CellData>
      <Points>
        <DataArray type="Float32" NumberOfComponents="3" format="ascii">
          -0.071748876388775931 0.1826956582586122 0
          0.024541518920022681 0.23813907379788568 0
          0.12260418228297031 0.18589411391888266 0
          0.20705753980982047 0.11369045653256951 0
          0.31475575049950644 0.14102094802322562 0
          0.39094364524079184 0.22189795399021522 0
          0.50200972416308942 0.22509149352423433 0
          0.58023773959583724 0.14618606067087453 0
          0.68735044164954995 0.1166441566405277 0
          0.77213013683254128 0.1884644146969354 0
        </DataArray>
      </Points>
      <Cells>
        <DataArray type="Int32" Name="connectivity" format="ascii">
          0 1 1 2 2 3 3 4 4 5 5 6 6 7 7 8 8 9 
        </DataArray>
        <DataArray type="Int32" Name="offsets" format="ascii">
          2 4 6 8 10 12 14 16 18 
        </DataArray>
        <DataArray type="Int32" Name="types" format="ascii">
          3 3 3 3 3 3 3 3 3         </DataArray>
      </Cells>
    </Piece>
  </UnstructuredGrid>
</VTKFile>
