<?xml version="1.0"?>
<VTKFile type="UnstructuredGrid" version="0.1" byte_order="LittleEndian">
  <UnstructuredGrid>
    <Piece NumberOfPoints="10" NumberOfCells="9">
      <PointData Scalars="W">
        <DataArray type="Float32" Name="W" NumberOfComponents="2">
          0 0 2.9747652244269442 7.7605865969313967 -1.7993497165570396 4.4530895951127656 1.753838380238735 -6.8392183306048313 -3.7296722273029208 -6.0061577619569952 3.0521916181530071 3.7014755675309687 -0.50377857193907793 8.3025210014244184 0.75001232296724873 -1.5776856559368411 -1.4081938476430276 -8.6428944927974829 0 0
        </DataArray>
        <DataArray type="Float32" Name="u" NumberOfComponents="1">
          0 0.1111111111111111 0.22222222222222221 0.33333333333333331 0.44444444444444442 0.55555555555555558 0.66666666666666663 0.77777777777777779 0.88888888888888884 1
        </DataArray>
      </PointData>
      <CellData Scalars="P">
        <DataArray type="Float32" Name="P" NumberOfComponents="1">
          0.018164420041515909 -0.016725654061343097 -0.0059499320823137459 0.00018103707320908969 0.0058822433793774172 0.016760540322632241 -0.016081274911599896 0.013734981711795833 -0.012239057982437899
        </DataArray>
      </CellData>
      <Points>
        <DataArray type="Float32" NumberOfComponents="3" format="ascii">
          0.072690783860776029 0.2394264341750505 0
          0.14635635094974603 0.15624513676683827 0
          0.256748214757203 0.16887434014532574 0
          0.34492501780900231 0.2364800991160787 0
          0.45475505761036938 0.21965056879627715 0
          0.51853874263149324 0.12867074488676281 0
          0.62000466736853099 0.083388022920969695 0
          0.71525057700962735 0.14060653957931102 0
          0.81975628213374752 0.1783474426857439 0
          0.90687668191629289 0.10938474214782078 0
        </DataArray>
      </Points>
      <Cells>
        <DataArray type="Int32" Name="connectivity" format="ascii">
          0 1 1 2 2 3 3 4 4 5 5 6 6 7 7 8 8 9 
        </DataArray>
        <DataArray type="Int32" Name="offsets" format="ascii">
          2 4 6 8 10 12 14 16 18 
        </DataArray>
        <DataArray type="Int32" Name="types" format="ascii">
          3 3 3 3 3 3 3 3 3         </DataArray>
      </Cells>
    </Piece>
  </UnstructuredGrid>
</VTKFile>
