<?xml version="1.0"?>
<VTKFile type="UnstructuredGrid" version="0.1" byte_order="LittleEndian">
  <UnstructuredGrid>
    <Piece NumberOfPoints="10" NumberOfCells="9">
      <PointData Scalars="W">
        <DataArray type="Float32" Name="W" NumberOfComponents="2">
          0 0 -1.8362140529377817 6.8602429906106837 1.8483666574251292 -4.3632309750457487 -2.8598686344275608 -7.8600127509688775 1.0944042027068925 1.1934141295701999 1.2663088016683204 8.6405893075002815 -0.81104434400035563 1.6278024467187504 0.69287551532249991 -8.283007663276539 -3.0630436736696045 -3.8422106479066507 0 0
        </DataArray>
        <DataArray type="Float32" Name="u" NumberOfComponents="1">
          0 0.1111111111111111 0.22222222222222221 0.33333333333333331 0.44444444444444442 0.55555555555555558 0.66666666666666663 0.77777777777777779 0.88888888888888884 1
        </DataArray>
      </PointData>
      <CellData Scalars="P">
        <DataArray type="Float32" Name="P" NumberOfComponents="1">
          0.0074614901586031145 0.00057608806749559743 0.018249836291183482 0.021167072284298774 0.045474344274594909 -0.030504725488396042 -0.0039597139259519021 -0.011556172706518727 -0.013245057678781836
        </DataArray>
      </CellData>
      <Points>
        <DataArray type="Float32" NumberOfComponents="3" format="ascii">
          0.059009886126773048 0.17555040032635599 0
          0.16897130170947058 0.15960107467419882 0
          0.2562623972747971 0.22834668000191718 0
          0.36637355669742044 0.24322510354474564 0
          0.44117700758231776 0.1610656617084307 0
          0.52949209733016833 0.093639523402071032 0
          0.63344085169821573 0.13288872769384324 0
          0.72737615676584511 0.19223419651483614 0
          0.82986597832317699 0.14931951088498224 0
          0.89453971106421093 0.058970181332090636 0
        </DataArray>
      </Points>
      <Cells>
        <DataArray type="Int32" Name="connectivity" format="ascii">
          0 1 1 2 2 3 3 4 4 5 5 6 6 7 7 8 8 9 
        </DataArray>
        <DataArray type="Int32" Name="offsets" format="ascii">
          2 4 6 8 10 12 14 16 18 
        </DataArray>
        <DataArray type="Int32" Name="types" format="ascii">
          3 3 3 3 3 3 3 3 3         </DataArray>
      </Cells>
    </Piece>
  </UnstructuredGrid>
</VTKFile>
