<?xml version="1.0"?>
<VTKFile type="UnstructuredGrid" version="0.1" byte_order="LittleEndian">
  <UnstructuredGrid>
    <Piece NumberOfPoints="10" NumberOfCells="9">
      <PointData Scalars="W">
        <DataArray type="Float32" Name="W" NumberOfComponents="2">
          0 0 3.665445762442892 5.8571802052695361 -1.7264246088994477 6.9446675340708444 1.7722779586630766 -4.2923700068604154 -2.9193769279126967 -7.8769232290652331 1.0204117719798171 1.0780894257219633 1.4691337452439377 8.6032211074915175 -0.83744650228860718 1.754598145511409 0.62537870944165286 -8.255159688780461 0 0
        </DataArray>
        <DataArray type="Float32" Name="u" NumberOfComponents="1">
          0 0.1111111111111111 0.22222222222222221 0.33333333333333331 0.44444444444444442 0.55555555555555558 0.66666666666666663 0.77777777777777779 0.88888888888888884 1
        </DataArray>
      </PointData>
      <CellData Scalars="P">
        <DataArray type="Float32" Name="P" NumberOfComponents="1">
          0.019414682068878183 0.00072347826443243054 -0.0097042975156778517 0.01114979139282854 -0.010788750970927833 0.017273330554858569 -0.024586209031069856 -0.00090518914672839173 -0.0090729468432446028
        </DataArray>
      </CellData>
      <Points>
        <DataArray type="Float32" NumberOfComponents="3" format="ascii">
          -0.2668134074610945 0.28509393303924374 0
          -0.20246755453247031 0.19451084837562002 0
          -0.092868307486698817 0.17623878945238627 0
          -0.0045838151444594676 0.24370385933905431 0
          0.10558154452831638 0.25817658442583535 0
          0.17970441062952663 0.17540246968740228 0
          0.26642522059191565 0.10593805157310601 0
          0.37128370149845963 0.14268734354999535 0
          0.46580298776951029 0.20109838901762547 0
          0.56804359600702992 0.15759283764770299 0
        </DataArray>
      </Points>
      <Cells>
        <DataArray type="Int32" Name="connectivity" format="ascii">
          0 1 1 2 2 3 3 4 4 5 5 6 6 7 7 8 8 9 
        </DataArray>
        <DataArray type="Int32" Name="offsets" format="ascii">
          2 4 6 8 10 12 14 16 18 
        </DataArray>
        <DataArray type="Int32" Name="types" format="ascii">
          3 3 3 3 3 3 3 3 3         </DataArray>
      </Cells>
    </Piece>
  </UnstructuredGrid>
</VTKFile>
