<?xml version="1.0"?>
<VTKFile type="UnstructuredGrid" version="0.1" byte_order="LittleEndian">
  <UnstructuredGrid>
    <Piece NumberOfPoints="10" NumberOfCells="9">
      <PointData Scalars="W">
        <DataArray type="Float32" Name="W" NumberOfComponents="2">
          0 0 0.37641191510769129 8.6342268538107625 -0.050909778522995698 0.10183954036114887 -0.26313873751746752 -8.6314647660415726 -2.3192114332126845 -2.6117776438566058 3.5529349525761789 6.8722588506995628 -1.8940026963877175 5.8252330981290132 1.897746024565925 -5.671465652824164 -3.5524021009399629 -7.022780715490244 0 0
        </DataArray>
        <DataArray type="Float32" Name="u" NumberOfComponents="1">
          0 0.1111111111111111 0.22222222222222221 0.33333333333333331 0.44444444444444442 0.55555555555555558 0.66666666666666663 0.77777777777777779 0.88888888888888884 1
        </DataArray>
      </PointData>
      <CellData Scalars="P">
        <DataArray type="Float32" Name="P" NumberOfComponents="1">
          0.010139845380970125 -0.006836285403836696 0.022084417773174485 -0.021233856093074131 -0.00085882835641933671 -0.0060871053981466413 0.0070531685200397459 0.0090757604852084416 -0.01889662303230806
        </DataArray>
      </CellData>
      <Points>
        <DataArray type="Float32" NumberOfComponents="3" format="ascii">
          -0.09091566145679944 0.21936363367604475 0
          0.0041348548703214003 0.16182023556034075 0
          0.10383225571593059 0.21087341059710163 0
          0.20290109882392696 0.26118385593850962 0
          0.29872153710119831 0.20493187818695049 0
          0.36590907708869458 0.11643586545788796 0
          0.476961005072917 0.11278302391375267 0
          0.56462921506596042 0.18104695372246499 0
          0.67572729391260833 0.1792925172312195 0
          0.74296762961866281 0.090836619422298689 0
        </DataArray>
      </Points>
      <Cells>
        <DataArray type="Int32" Name="connectivity" format="ascii">
          0 1 1 2 2 3 3 4 4 5 5 6 6 7 7 8 8 9 
        </DataArray>
        <DataArray type="Int32" Name="offsets" format="ascii">
          2 4 6 8 10 12 14 16 18 
        </DataArray>
        <DataArray type="Int32" Name="types" format="ascii">
          3 3 3 3 3 3 3 3 3         </DataArray>
      </Cells>
    </Piece>
  </UnstructuredGrid>
</VTKFile>
