<?xml version="1.0"?>
<VTKFile type="UnstructuredGrid" version="0.1" byte_order="LittleEndian">
  <UnstructuredGrid>
    <Piece NumberOfPoints="10" NumberOfCells="9">
      <PointData Scalars="W">
        <DataArray type="Float32" Name="W" NumberOfComponents="2">
          0 0 2.2870158636277629 8.2927016023073215 -1.4331385281865423 3.1754355426557677 1.3367386749614789 -7.6408657158266209 -3.6009237800446283 -5.0169561631849184 3.5270479544594568 4.7665165980139079 -1.1719386197670154 7.7611869136961538 1.3202820006197808 -2.9534778434413398 -2.2568796343424387 -8.3760253165208152 0 0
        </DataArray>
        <DataArray type="Float32" Name="u" NumberOfComponents="1">
          0 0.1111111111111111 0.22222222222222221 0.33333333333333331 0.44444444444444442 0.55555555555555558 0.66666666666666663 0.77777777777777779 0.88888888888888884 1
        </DataArray>
      </PointData>
      <CellData Scalars="P">
        <DataArray type="Float32" Name="P" NumberOfComponents="1">
          0.015605250360178399 -0.018520215082076998 0.0030314852198569347 -0.0066856376301100209 0.0020522122201700817 0.0085296196264507441 -0.0069892123926198627 0.017371598080556199 -0.01473668697354464
        </DataArray>
      </CellData>
      <Points>
        <DataArray type="Float32" NumberOfComponents="3" format="ascii">
          -0.12223815066230528 0.24385181494843797 0
          -0.042266691736697004 0.16671333867059451 0
          0.065940092004739062 0.19195492976496537 0
          0.15645310948009061 0.25639948683914277 0
          0.26346986202267481 0.22651165068521179 0
          0.32602977586696702 0.13468607566612659 0
          0.43213447065198701 0.10170635751635348 0
          0.52377003282210743 0.16454452960595267 0
          0.63170602050158053 0.19091995684410054 0
          0.7117787797991868 0.1138866068549788 0
        </DataArray>
      </Points>
      <Cells>
        <DataArray type="Int32" Name="connectivity" format="ascii">
          0 1 1 2 2 3 3 4 4 5 5 6 6 7 7 8 8 9 
        </DataArray>
        <DataArray type="Int32" Name="offsets" format="ascii">
          2 4 6 8 10 12 14 16 18 
        </DataArray>
        <DataArray type="Int32" Name="types" format="ascii">
          3 3 3 3 3 3 3 3 3         </DataArray>
      </Cells>
    </Piece>
  </UnstructuredGrid>
</VTKFile>
