<?xml version="1.0"?>
<VTKFile type="UnstructuredGrid" version="0.1" byte_order="LittleEndian">
  <UnstructuredGrid>
    <Piece NumberOfPoints="10" NumberOfCells="9">
      <PointData Scalars="W">
        <DataArray type="Float32" Name="W" NumberOfComponents="2">
          0 0 2.9212372883774647 7.816171686468623 -1.7757038376069945 4.3434466773208857 1.726201678539973 -6.9184315884804573 -3.7300992416937873 -5.9215414687979004 3.1055444654526139 3.7981955750802725 -0.57001859312562597 8.2637823322821262 0.80619697512144861 -1.7026019395919236 -1.4871659945147666 -8.6292129622997766 0 0
        </DataArray>
        <DataArray type="Float32" Name="u" NumberOfComponents="1">
          0 0.1111111111111111 0.22222222222222221 0.33333333333333331 0.44444444444444442 0.55555555555555558 0.66666666666666663 0.77777777777777779 0.88888888888888884 1
        </DataArray>
      </PointData>
      <CellData Scalars="P">
        <DataArray type="Float32" Name="P" NumberOfComponents="1">
          0.017966826926325445 -0.017088974529081726 -0.0052790820823599705 -0.00034499597157998391 0.0057042140554780848 0.016083961025659187 -0.015330396016263858 0.014222593690511532 -0.012445991470788325
        </DataArray>
      </CellData>
      <Points>
        <DataArray type="Float32" NumberOfComponents="3" format="ascii">
          -0.15747237978755566 0.25553325493806334 0
          -0.083283887322730815 0.17281799241979909 0
          0.026970045693416322 0.18659949089433039 0
          0.11530085326411615 0.25400391951936674 0
          0.2249436961506224 0.23599509872715727 0
          0.28853491240477364 0.14488064976949699 0
          0.39046705906688922 0.10065738254014762 0
          0.48536138902362908 0.15845708180847248 0
          0.59020917851140708 0.19523698834519027 0
          0.67669666722272703 0.12548220677996405 0
        </DataArray>
      </Points>
      <Cells>
        <DataArray type="Int32" Name="connectivity" format="ascii">
          0 1 1 2 2 3 3 4 4 5 5 6 6 7 7 8 8 9 
        </DataArray>
        <DataArray type="Int32" Name="offsets" format="ascii">
          2 4 6 8 10 12 14 16 18 
        </DataArray>
        <DataArray type="Int32" Name="types" format="ascii">
          3 3 3 3 3 3 3 3 3         </DataArray>
      </Cells>
    </Piece>
  </UnstructuredGrid>
</VTKFile>
