<?xml version="1.0"?>
<VTKFile type="UnstructuredGrid" version="0.1" byte_order="LittleEndian">
  <UnstructuredGrid>
    <Piece NumberOfPoints="10" NumberOfCells="9">
      <PointData Scalars="W">
        <DataArray type="Float32" Name="W" NumberOfComponents="2">
          0 0 2.5999554545941392 -7.0274888712524319 -2.7910555254510507 -5.8649454900639046 2.6640677905148116 4.8906680598636916 -2.2377844681812569 7.7567011434290105 1.5006397639832656 -2.2069763820434187 -0.48543686431729161 -8.682027936825401 -0.40877878299384052 -0.59718701094197868 1.2419535851250745 8.4533327318695672 0 0
        </DataArray>
        <DataArray type="Float32" Name="u" NumberOfComponents="1">
          0 0.1111111111111111 0.22222222222222221 0.33333333333333331 0.44444444444444442 0.55555555555555558 0.66666666666666663 0.77777777777777779 0.88888888888888884 1
        </DataArray>
      </PointData>
      <CellData Scalars="P">
        <DataArray type="Float32" Name="P" NumberOfComponents="1">
          0.019958363189923771 -0.0058713932232426283 -0.011478802435459448 0.0074368573753271 -0.00042644827111366267 0.02210588382769272 -0.024469562257533099 0.0031881692203924233 -0.0096268177653067218
        </DataArray>
      </CellData>
      <Points>
        <DataArray type="Float32" NumberOfComponents="3" format="ascii">
          -0.25739090113537993 0.16153776184432317 0
          -0.17869041594070117 0.23997201119306738 0
          -0.067890800214153085 0.23164665332810619 0
          0.0084503705957795806 0.15091434451221403 0
          0.11768223479813064 0.13056073429216836 0
          0.19928630619538623 0.20596962193202606 0
          0.29941732084529871 0.25413193101890919 0
          0.39355508082536217 0.19510758183674368 0
          0.48264606985206826 0.12871054555693334 0
          0.58707033841857603 0.16667674323186477 0
        </DataArray>
      </Points>
      <Cells>
        <DataArray type="Int32" Name="connectivity" format="ascii">
          0 1 1 2 2 3 3 4 4 5 5 6 6 7 7 8 8 9 
        </DataArray>
        <DataArray type="Int32" Name="offsets" format="ascii">
          2 4 6 8 10 12 14 16 18 
        </DataArray>
        <DataArray type="Int32" Name="types" format="ascii">
          3 3 3 3 3 3 3 3 3         </DataArray>
      </Cells>
    </Piece>
  </UnstructuredGrid>
</VTKFile>
