<?xml version="1.0"?>
<VTKFile type="UnstructuredGrid" version="0.1" byte_order="LittleEndian">
  <UnstructuredGrid>
    <Piece NumberOfPoints="10" NumberOfCells="9">
      <PointData Scalars="W">
        <DataArray type="Float32" Name="W" NumberOfComponents="2">
          0 0 1.6987874285342879 -2.7277132692705437 -1.0663871950063406 -8.5817432962749294 -0.081205318366490351 -0.11081355573405034 1.2059289324967983 8.5414611457775269 -1.8436373950987148 2.9728503943766307 2.3329828660874243 -7.3810645615736448 -2.8791168792846826 -5.4351371813768319 2.8476967445987591 5.2273890067661881 0 0
        </DataArray>
        <DataArray type="Float32" Name="u" NumberOfComponents="1">
          0 0.1111111111111111 0.22222222222222221 0.33333333333333331 0.44444444444444442 0.55555555555555558 0.66666666666666663 0.77777777777777779 0.88888888888888884 1
        </DataArray>
      </PointData>
      <CellData Scalars="P">
        <DataArray type="Float32" Name="P" NumberOfComponents="1">
          0.0091543650667951573 0.013035644825905282 0.0068298521547444091 0.043875160891787404 -0.052943208286401457 -0.049587096597570664 -0.017770936902209596 0.0040878347224993393 -0.0061160709600246149
        </DataArray>
      </CellData>
      <Points>
        <DataArray type="Float32" NumberOfComponents="3" format="ascii">
          -0.18588676150289418 0.13634371243512428 0
          -0.10357246480465901 0.21097671655716063 0
          -0.00028502908330264078 0.2519341910504006 0
          0.089836822333038968 0.18694334338650145 0
          0.17895630927452469 0.1205842846083599 0
          0.28296430279419726 0.15967674212308247 0
          0.36421043163241595 0.23547094414025857 0
          0.47425954090781824 0.22014044193090884 0
          0.54876321576323772 0.13770936071816908 0
          0.65842483973538002 0.11981409007558014 0
        </DataArray>
      </Points>
      <Cells>
        <DataArray type="Int32" Name="connectivity" format="ascii">
          0 1 1 2 2 3 3 4 4 5 5 6 6 7 7 8 8 9 
        </DataArray>
        <DataArray type="Int32" Name="offsets" format="ascii">
          2 4 6 8 10 12 14 16 18 
        </DataArray>
        <DataArray type="Int32" Name="types" format="ascii">
          3 3 3 3 3 3 3 3 3         </DataArray>
      </Cells>
    </Piece>
  </UnstructuredGrid>
</VTKFile>
