<?xml version="1.0"?>
<VTKFile type="UnstructuredGrid" version="0.1" byte_order="LittleEndian">
  <UnstructuredGrid>
    <Piece NumberOfPoints="10" NumberOfCells="9">
      <PointData Scalars="W">
        <DataArray type="Float32" Name="W" NumberOfComponents="2">
          0 0 1.7639437750823279 2.0531983076006188 0.4744200289549132 8.6834035360084663 -0.32414210104612201 0.61055158763206008 0.27236724730814155 -8.5396874118515065 -2.5180923511823465 -3.0789715666252233 3.4548563362554581 6.6805068117950128 -2.0565157108102485 6.1535142175254514 2.0493318191856988 -5.1881964827532139 0 0
        </DataArray>
        <DataArray type="Float32" Name="u" NumberOfComponents="1">
          0 0.1111111111111111 0.22222222222222221 0.33333333333333331 0.44444444444444442 0.55555555555555558 0.66666666666666663 0.77777777777777779 0.88888888888888884 1
        </DataArray>
      </PointData>
      <CellData Scalars="P">
        <DataArray type="Float32" Name="P" NumberOfComponents="1">
          0.0077238359405923515 0.012511431368383258 0.0082113234000867463 0.048741686201689234 -0.052406794257216345 -0.057125276359461928 -0.017878720231763533 0.0052194200845545793 -0.0053863103078441192
        </DataArray>
      </CellData>
      <Points>
        <DataArray type="Float32" NumberOfComponents="3" format="ascii">
          -0.27132354854087959 0.29915708218136611 0
          -0.19889091889648483 0.2148999925686258 0
          -0.10468085253513451 0.15599105588366513 0
          -0.0046138300926021865 0.20428554062014159 0
          0.091451525303629197 0.26011782575438536 0
          0.19087986815670899 0.21052046577568023 0
          0.25921967123478706 0.1229113390085232 0
          0.37021280630666403 0.11777786936689504 0
          0.45581611031896141 0.18861397342716602 0
          0.56672098248401137 0.19539802758731845 0
        </DataArray>
      </Points>
      <Cells>
        <DataArray type="Int32" Name="connectivity" format="ascii">
          0 1 1 2 2 3 3 4 4 5 5 6 6 7 7 8 8 9 
        </DataArray>
        <DataArray type="Int32" Name="offsets" format="ascii">
          2 4 6 8 10 12 14 16 18 
        </DataArray>
        <DataArray type="Int32" Name="types" format="ascii">
          3 3 3 3 3 3 3 3 3         </DataArray>
      </Cells>
    </Piece>
  </UnstructuredGrid>
</VTKFile>
