<?xml version="1.0"?>
<VTKFile type="UnstructuredGrid" version="0.1" byte_order="LittleEndian">
  <UnstructuredGrid>
    <Piece NumberOfPoints="10" NumberOfCells="9">
      <PointData Scalars="W">
        <DataArray type="Float32" Name="W" NumberOfComponents="2">
          0 0 -2.0208771112648907 6.1961490177756851 2.0187990286909967 -5.166319691171207 -3.1822701421163404 -7.4132918828193093 1.7605502386489209 2.0007914103367765 0.59453730921632031 8.6824218415425047 -0.34137931359037071 0.6596776457774064 0.20953761399954823 -8.5365721346851426 -2.5824818937275169 -3.0938878536084036 0 0
        </DataArray>
        <DataArray type="Float32" Name="u" NumberOfComponents="1">
          0 0.1111111111111111 0.22222222222222221 0.33333333333333331 0.44444444444444442 0.55555555555555558 0.66666666666666663 0.77777777777777779 0.88888888888888884 1
        </DataArray>
      </PointData>
      <CellData Scalars="P">
        <DataArray type="Float32" Name="P" NumberOfComponents="1">
          0.0065397363523757744 -0.0019926081932435964 0.017049770187624977 0.03770180272509354 0.051673871963871888 -0.039001814715356201 -0.0068177021887428435 -0.01241407576603892 -0.010666388521343297
        </DataArray>
      </CellData>
      <Points>
        <DataArray type="Float32" NumberOfComponents="3" format="ascii">
          0.021334226292696361 0.17111231861152895 0
          0.13227694833568071 0.16497935404592218 0
          0.21826947748936587 0.23534247864370719 0
          0.32918621122861574 0.24192369731981481 0
          0.40081489935090725 0.15698231151587708 0
          0.49417949239719239 0.096741806304433631 0
          0.59488399680467074 0.14369315481242198 0
          0.69137357322380477 0.19878856945193493 0
          0.7904503585919288 0.14849333827005354 0
          0.85764406397487181 0.06000199618989132 0
        </DataArray>
      </Points>
      <Cells>
        <DataArray type="Int32" Name="connectivity" format="ascii">
          0 1 1 2 2 3 3 4 4 5 5 6 6 7 7 8 8 9 
        </DataArray>
        <DataArray type="Int32" Name="offsets" format="ascii">
          2 4 6 8 10 12 14 16 18 
        </DataArray>
        <DataArray type="Int32" Name="types" format="ascii">
          3 3 3 3 3 3 3 3 3         </DataArray>
      </Cells>
    </Piece>
  </UnstructuredGrid>
</VTKFile>
