<?xml version="1.0"?>
<VTKFile type="UnstructuredGrid" version="0.1" byte_order="LittleEndian">
  <UnstructuredGrid>
    <Piece NumberOfPoints="10" NumberOfCells="9">
      <PointData Scalars="W">
        <DataArray type="Float32" Name="W" NumberOfComponents="2">
          0 0 -2.832816428799922 -6.472558134293724 2.4912929945045916 4.0980708143468156 -1.7045328160289266 8.1709358447539486 0.94616841116953621 -1.4017303657698352 -0.060479761277968308 -8.733170229770268 -1.0019111455680212 -1.4313101830499491 1.8732093377729213 8.1165454712447112 -2.4448840606090285 4.196607723890474 0 0
        </DataArray>
        <DataArray type="Float32" Name="u" NumberOfComponents="1">
          0 0.1111111111111111 0.22222222222222221 0.33333333333333331 0.44444444444444442 0.55555555555555558 0.66666666666666663 0.77777777777777779 0.88888888888888884 1
        </DataArray>
      </PointData>
      <CellData Scalars="P">
        <DataArray type="Float32" Name="P" NumberOfComponents="1">
          0.0074108070437209211 0.00041699241977427809 0.018140204641392245 0.022279053831472228 0.046026974823079526 -0.031045656607678516 -0.0041682343900784633 -0.011657316366880178 -0.013079200622048788
        </DataArray>
      </CellData>
      <Points>
        <DataArray type="Float32" NumberOfComponents="3" format="ascii">
          -0.071907451530895089 0.22763967842420563 0
          0.039199947537021801 0.22661973396751492 0
          0.11533321534253858 0.14569125697209034 0
          0.22222392502480992 0.11535627455285646 0
          0.30807042910328142 0.18589779608026788 0
          0.40559854274632728 0.23913413829314956 0
          0.5023799885549064 0.18455214229892011 0
          0.58679163214845065 0.11229979447970045 0
          0.69432991673524647 0.14025243773947993 0
          0.77168372111011663 0.22001510460710141 0
        </DataArray>
      </Points>
      <Cells>
        <DataArray type="Int32" Name="connectivity" format="ascii">
          0 1 1 2 2 3 3 4 4 5 5 6 6 7 7 8 8 9 
        </DataArray>
        <DataArray type="Int32" Name="offsets" format="ascii">
          2 4 6 8 10 12 14 16 18 
        </DataArray>
        <DataArray type="Int32" Name="types" format="ascii">
          3 3 3 3 3 3 3 3 3         </DataArray>
      </Cells>
    </Piece>
  </UnstructuredGrid>
</VTKFile>
