<?xml version="1.0"?>
<VTKFile type="UnstructuredGrid" version="0.1" byte_order="LittleEndian">
  <UnstructuredGrid>
    <Piece NumberOfPoints="10" NumberOfCells="9">
      <PointData Scalars="W">
        <DataArray type="Float32" Name="W" NumberOfComponents="2">
          0 0 1.2475515820016896 8.6367952015910259 -0.72571135361025974 1.4847539041375817 0.53277331772092662 -8.3391490051907997 -3.0436225957078515 -3.6999383265619059 3.7182474931508631 5.9984383454809693 -1.7191151852971527 6.7932203025907434 1.7789181083386696 -4.5417247121026421 -3.1109481537248875 -7.7322617865105867 0 0
        </DataArray>
        <DataArray type="Float32" Name="u" NumberOfComponents="1">
          0 0.1111111111111111 0.22222222222222221 0.33333333333333331 0.44444444444444442 0.55555555555555558 0.66666666666666663 0.77777777777777779 0.88888888888888884 1
        </DataArray>
      </PointData>
      <CellData Scalars="P">
        <DataArray type="Float32" Name="P" NumberOfComponents="1">
          0.012196494410031495 -0.013836456057030742 0.015327734843866021 -0.016458159159210898 -0.0028168918197933753 -0.00072194487265785318 0.0030730134613985915 0.015233591262994044 -0.017619969912562181
        </DataArray>
      </CellData>
      <Points>
        <DataArray type="Float32" NumberOfComponents="3" format="ascii">
          -0.088097162670277812 0.22886910091888402 0
          0.00038441690632102794 0.16166174690313503 0
          0.10426803207883499 0.20108268964141104 0
          0.19919188443148819 0.25883393603678162 0
          0.30069370297990161 0.21363173622089698 0
          0.36461907868515914 0.12275140500088877 0
          0.47444977257710513 0.10592607484710889 0
          0.56305590026135877 0.17296815811027444 0
          0.67362483052920885 0.18393941310852302 0
          0.74578618842808531 0.099449900756787737 0
        </DataArray>
      </Points>
      <Cells>
        <DataArray type="Int32" Name="connectivity" format="ascii">
          0 1 1 2 2 3 3 4 4 5 5 6 6 7 7 8 8 9 
        </DataArray>
        <DataArray type="Int32" Name="offsets" format="ascii">
          2 4 6 8 10 12 14 16 18 
        </DataArray>
        <DataArray type="Int32" Name="types" format="ascii">
          3 3 3 3 3 3 3 3 3         </DataArray>
      </Cells>
    </Piece>
  </UnstructuredGrid>
</VTKFile>
