<?xml version="1.0"?>
<VTKFile type="UnstructuredGrid" version="0.1" byte_order="LittleEndian">
  <UnstructuredGrid>
    <Piece NumberOfPoints="10" NumberOfCells="9">
      <PointData Scalars="W">
        <DataArray type="Float32" Name="W" NumberOfComponents="2">
          0 0 -2.2864115610143645 -3.2946877461703274 2.9313706627980531 6.9077138946987739 -2.5254649082272462 5.9970904973478918 2.4398359790996222 -4.9903693861938816 -2.555487307672732 -7.6375703117748008 1.6015936283365919 2.166804143026384 -0.16862550957843817 8.7164221866348228 -0.40200197510066116 0.63193780804586863 0 0
        </DataArray>
        <DataArray type="Float32" Name="u" NumberOfComponents="1">
          0 0.1111111111111111 0.22222222222222221 0.33333333333333331 0.44444444444444442 0.55555555555555558 0.66666666666666663 0.77777777777777779 0.88888888888888884 1
        </DataArray>
      </PointData>
      <CellData Scalars="P">
        <DataArray type="Float32" Name="P" NumberOfComponents="1">
          0.0019939955124686089 -0.0061695582501403376 0.017759705906776915 0.077322161146524862 0.036260516687805985 -0.069309823280882865 -0.014497713158379893 -0.0068248776475453733 -0.0026152528853597016
        </DataArray>
      </CellData>
      <Points>
        <DataArray type="Float32" NumberOfComponents="3" format="ascii">
          -0.17694301649293315 0.26554531544698029 0
          -0.07383912410416571 0.22412682997721425 0
          0.0010364152842096712 0.14203335150582075 0
          0.1121024403543853 0.14522058720732794 0
          0.19198916275759503 0.22244617389730623 0
          0.30199855267092024 0.23806210890573123 0
          0.38045765919716379 0.15938605602542746 0
          0.4786897955343149 0.10746077740577542 0
          0.57484000005193281 0.16314645709394934 0
          0.66602736934176832 0.22663402654562589 0
        </DataArray>
      </Points>
      <Cells>
        <DataArray type="Int32" Name="connectivity" format="ascii">
          0 1 1 2 2 3 3 4 4 5 5 6 6 7 7 8 8 9 
        </DataArray>
        <DataArray type="Int32" Name="offsets" format="ascii">
          2 4 6 8 10 12 14 16 18 
        </DataArray>
        <DataArray type="Int32" Name="types" format="ascii">
          3 3 3 3 3 3 3 3 3         </DataArray>
      </Cells>
    </Piece>
  </UnstructuredGrid>
</VTKFile>
