<?xml version="1.0"?>
<VTKFile type="UnstructuredGrid" version="0.1" byte_order="LittleEndian">
  <UnstructuredGrid>
    <Piece NumberOfPoints="10" NumberOfCells="9">
      <PointData Scalars="W">
        <DataArray type="Float32" Name="W" NumberOfComponents="2">
          0 0 -1.0263435469205369 -1.2716264443846319 2.3697146725462734 8.0004953156098573 -2.1001117985102176 4.2389571717438148 2.2365312158704627 -6.7384159879978967 -3.2575523376986069 -6.1927235322827832 2.7991552131810131 4.0250094212363363 -1.229288258027663 8.223624805640668 0.9169030204185713 -1.5752157853648616 0 0
        </DataArray>
        <DataArray type="Float32" Name="u" NumberOfComponents="1">
          0 0.1111111111111111 0.22222222222222221 0.33333333333333331 0.44444444444444442 0.55555555555555558 0.66666666666666663 0.77777777777777779 0.88888888888888884 1
        </DataArray>
      </PointData>
      <CellData Scalars="P">
        <DataArray type="Float32" Name="P" NumberOfComponents="1">
          0.0004321736282450706 -0.00028891383909980853 0.017095530183477665 0.08101870000550232 -0.0030953588946291979 -0.083539398058111308 -0.018783937091618939 0.0020129262470361441 -0.00045706389585573119
        </DataArray>
      </CellData>
      <Points>
        <DataArray type="Float32" NumberOfComponents="3" format="ascii">
          -0.16893151312166127 0.27985834620960792 0
          -0.076489903088545558 0.21821083403640337 0
          0.0032801573790409984 0.14086451134499656 0
          0.11230649809488957 0.16229029395686503 0
          0.19540497581991306 0.2360490142357132 0
          0.30611616570000516 0.22661675943326146 0
          0.37660935071182094 0.1407307136728258 0
          0.48166058476172868 0.10453618714474018 0
          0.57153494747463796 0.16986848513593025 0
          0.67272985342895086 0.21575387058154921 0
        </DataArray>
      </Points>
      <Cells>
        <DataArray type="Int32" Name="connectivity" format="ascii">
          0 1 1 2 2 3 3 4 4 5 5 6 6 7 7 8 8 9 
        </DataArray>
        <DataArray type="Int32" Name="offsets" format="ascii">
          2 4 6 8 10 12 14 16 18 
        </DataArray>
        <DataArray type="Int32" Name="types" format="ascii">
          3 3 3 3 3 3 3 3 3         </DataArray>
      </Cells>
    </Piece>
  </UnstructuredGrid>
</VTKFile>
