<?xml version="1.0"?>
<VTKFile type="UnstructuredGrid" version="0.1" byte_order="LittleEndian">
  <UnstructuredGrid>
    <Piece NumberOfPoints="10" NumberOfCells="9">
      <PointData Scalars="W">
        <DataArray type="Float32" Name="W" NumberOfComponents="2">
          0 0 -0.7198843983155081 1.2105596101236855 1.0848945102667189 -8.3250128807023405 -2.6090424915600656 -3.7246155244423655 3.1642924266055283 6.4804089842367834 -2.3587776837111356 6.4606330457010905 2.2366219128752771 -4.557967668813478 -2.4892897694869709 -7.8720103282794778 1.2683249169450583 1.6045030090779984 0 0
        </DataArray>
        <DataArray type="Float32" Name="u" NumberOfComponents="1">
          0 0.1111111111111111 0.22222222222222221 0.33333333333333331 0.44444444444444442 0.55555555555555558 0.66666666666666663 0.77777777777777779 0.88888888888888884 1
        </DataArray>
      </PointData>
      <CellData Scalars="P">
        <DataArray type="Float32" Name="P" NumberOfComponents="1">
          0.00050393656787761079 0.00050641696751796146 0.016826272908347983 0.080223740856383369 -0.0069309986678377502 -0.083895549372941122 -0.018971341188452291 0.0027220735930321969 -0.00050590575603744637
        </DataArray>
      </CellData>
      <Points>
        <DataArray type="Float32" NumberOfComponents="3" format="ascii">
          -0.0057096192272180742 0.13368061696293854 0
          0.093942858819718963 0.18282576370551915 0
          0.18470724754719314 0.24691590092549087 0
          0.28886582545136247 0.20822744739454355 0
          0.36081345410361032 0.12355603303035902 0
          0.47182770830488813 0.11889018867825836 0
          0.55372000301493562 0.19398579833688392 0
          0.66322549850139245 0.21281007243271166 0
          0.74199844660464509 0.13444854162265979 0
          0.8364304888565911 0.075895388999513508 0
        </DataArray>
      </Points>
      <Cells>
        <DataArray type="Int32" Name="connectivity" format="ascii">
          0 1 1 2 2 3 3 4 4 5 5 6 6 7 7 8 8 9 
        </DataArray>
        <DataArray type="Int32" Name="offsets" format="ascii">
          2 4 6 8 10 12 14 16 18 
        </DataArray>
        <DataArray type="Int32" Name="types" format="ascii">
          3 3 3 3 3 3 3 3 3         </DataArray>
      </Cells>
    </Piece>
  </UnstructuredGrid>
</VTKFile>
