<?xml version="1.0"?>
<VTKFile type="UnstructuredGrid" version="0.1" byte_order="LittleEndian">
  <UnstructuredGrid>
    <Piece NumberOfPoints="10" NumberOfCells="9">
      <PointData Scalars="W">
        <DataArray type="Float32" Name="W" NumberOfComponents="2">
          0 0 -2.8970662745865612 -6.0355569935043611 2.6838902882309075 4.5982009214925581 -1.9601316483213194 7.9225896822751078 1.3009822579924968 -1.9810423969792157 -0.49395163173622469 -8.7056209798450936 -0.61343131997457601 -0.85745710704978118 1.5927349511723756 8.3316123537467028 -2.2163203510525973 3.6757111403458302 0 0
        </DataArray>
        <DataArray type="Float32" Name="u" NumberOfComponents="1">
          0 0.1111111111111111 0.22222222222222221 0.33333333333333331 0.44444444444444442 0.55555555555555558 0.66666666666666663 0.77777777777777779 0.88888888888888884 1
        </DataArray>
      </PointData>
      <CellData Scalars="P">
        <DataArray type="Float32" Name="P" NumberOfComponents="1">
          0.0068418287554836196 -0.0012294180411123884 0.017298183121873638 0.032987834760973452 0.050362018998623734 -0.036466417306693276 -0.00604700025475172 -0.012306726368495915 -0.011428748897847122
        </DataArray>
      </CellData>
      <Points>
        <DataArray type="Float32" NumberOfComponents="3" format="ascii">
          0.044093004417311496 0.22373003139627545 0
          0.15496007093635497 0.21635490048854214 0
          0.230059757611422 0.13446641758178091 0
          0.33829466156794602 0.1093459016307904 0
          0.4223297519094103 0.1820357734268811 0
          0.52242702998901958 0.2302684734078895 0
          0.61642595267420908 0.17102293159643606 0
          0.70285124279391831 0.10119165295770964 0
          0.8089404245446391 0.13422057312165989 0
          0.88766699310395558 0.2126286912112606 0
        </DataArray>
      </Points>
      <Cells>
        <DataArray type="Int32" Name="connectivity" format="ascii">
          0 1 1 2 2 3 3 4 4 5 5 6 6 7 7 8 8 9 
        </DataArray>
        <DataArray type="Int32" Name="offsets" format="ascii">
          2 4 6 8 10 12 14 16 18 
        </DataArray>
        <DataArray type="Int32" Name="types" format="ascii">
          3 3 3 3 3 3 3 3 3         </DataArray>
      </Cells>
    </Piece>
  </UnstructuredGrid>
</VTKFile>
