<?xml version="1.0"?>
<VTKFile type="UnstructuredGrid" version="0.1" byte_order="LittleEndian">
  <UnstructuredGrid>
    <Piece NumberOfPoints="10" NumberOfCells="9">
      <PointData Scalars="W">
        <DataArray type="Float32" Name="W" NumberOfComponents="2">
          0 0 -0.9361093861621036 8.0817199909181756 1.0530983397156586 -2.1847781077813204 -1.6730488153105845 -8.5738222001386344 -0.71256569436912842 -0.75407882092694467 2.7036342698150837 8.0251618759357992 -1.6576241353226469 3.8956810201225509 1.5875234283749593 -7.2225112962593103 -3.7078472526901889 -5.5657501696808689 0 0
        </DataArray>
        <DataArray type="Float32" Name="u" NumberOfComponents="1">
          0 0.1111111111111111 0.22222222222222221 0.33333333333333331 0.44444444444444442 0.55555555555555558 0.66666666666666663 0.77777777777777779 0.88888888888888884 1
        </DataArray>
      </PointData>
      <CellData Scalars="P">
        <DataArray type="Float32" Name="P" NumberOfComponents="1">
          0.0085546544817805686 0.002077994380745189 0.023300804625896138 -0.012253628727035034 0.01873232932813991 -0.014917803899638491 0.0042486214023347646 -0.0036418046800936665 -0.017924855561858414
        </DataArray>
      </CellData>
      <Points>
        <DataArray type="Float32" NumberOfComponents="3" format="ascii">
          -0.093876699490670956 0.20367792962395057 0
          0.010358071443621927 0.16519436039536436 0
          0.10303526447963274 0.22648604852758306 0
          0.20871411933347817 0.260805121728309 0
          0.29373773722567609 0.18927346803078826 0
          0.36996409349416498 0.10843220014131506 0
          0.47956940347653887 0.12666799372788465 0
          0.56870933853920747 0.19299870334150945 0
          0.67744913627765591 0.17016207112700904 0
          0.74041210365310139 0.078612385737441226 0
        </DataArray>
      </Points>
      <Cells>
        <DataArray type="Int32" Name="connectivity" format="ascii">
          0 1 1 2 2 3 3 4 4 5 5 6 6 7 7 8 8 9 
        </DataArray>
        <DataArray type="Int32" Name="offsets" format="ascii">
          2 4 6 8 10 12 14 16 18 
        </DataArray>
        <DataArray type="Int32" Name="types" format="ascii">
          3 3 3 3 3 3 3 3 3         </DataArray>
      </Cells>
    </Piece>
  </UnstructuredGrid>
</VTKFile>
