<?xml version="1.0"?>
<VTKFile type="UnstructuredGrid" version="0.1" byte_order="LittleEndian">
  <UnstructuredGrid>
    <Piece NumberOfPoints="10" NumberOfCells="9">
      <PointData Scalars="W">
        <DataArray type="Float32" Name="W" NumberOfComponents="2">
          0 0 1.2912748427379683 -2.0384502025614117 -0.65469723649952982 -8.690070304606472 -0.59635924940489971 -0.8070736165785859 1.6953390188236006 8.3170943375914241 -2.1355619412493985 3.6633268723214423 2.4825212171347335 -6.9561867378628648 -2.9575715991902718 -5.9765326449328739 2.7393487874310996 4.6018540271767199 0 0
        </DataArray>
        <DataArray type="Float32" Name="u" NumberOfComponents="1">
          0 0.1111111111111111 0.22222222222222221 0.33333333333333331 0.44444444444444442 0.55555555555555558 0.66666666666666663 0.77777777777777779 0.88888888888888884 1
        </DataArray>
      </PointData>
      <CellData Scalars="P">
        <DataArray type="Float32" Name="P" NumberOfComponents="1">
          0.0069273042999272068 0.012069828680544997 0.0089689465862825852 0.051535976812891973 -0.051457022028597948 -0.061093601577165736 -0.018006946213034371 0.0057523457295167437 -0.0049459773891694231
        </DataArray>
      </CellData>
      <Points>
        <DataArray type="Float32" NumberOfComponents="3" format="ascii">
          -0.26433325928667806 0.14225449109016675 0
          -0.17928767218256286 0.21375973363541667 0
          -0.078300140903355908 0.26009883387433202 0
          0.014604549715485759 0.19915222689611525 0
          0.10014679093385132 0.12824161406396681 0
          0.20661984745627415 0.1600124682473805 0
          0.28672689159482945 0.23700952180340681 0
          0.39748308709230107 0.22812738784791708 0
          0.47172527900249256 0.14546073216587241 0
          0.57978778389099306 0.11960711356096351 0
        </DataArray>
      </Points>
      <Cells>
        <DataArray type="Int32" Name="connectivity" format="ascii">
          0 1 1 2 2 3 3 4 4 5 5 6 6 7 7 8 8 9 
        </DataArray>
        <DataArray type="Int32" Name="offsets" format="ascii">
          2 4 6 8 10 12 14 16 18 
        </DataArray>
        <DataArray type="Int32" Name="types" format="ascii">
          3 3 3 3 3 3 3 3 3         </DataArray>
      </Cells>
    </Piece>
  </UnstructuredGrid>
</VTKFile>
