<?xml version="1.0"?>
<VTKFile type="UnstructuredGrid" version="0.1" byte_order="LittleEndian">
  <UnstructuredGrid>
    <Piece NumberOfPoints="10" NumberOfCells="9">
      <PointData Scalars="W">
        <DataArray type="Float32" Name="W" NumberOfComponents="2">
          0 0 -0.18315914233652666 8.4938812062827722 0.40953255276406725 -0.82234246000396383 -0.83111831780589407 -8.6899850598406214 -1.7229105468910828 -1.8734222415786961 3.2937593253683772 7.3863711178336962 -1.8773487525150414 5.0955797025049847 1.8485264495162557 -6.3464585937480793 -3.7063209380783606 -6.4741412828267286 0 0
        </DataArray>
        <DataArray type="Float32" Name="u" NumberOfComponents="1">
          0 0.1111111111111111 0.22222222222222221 0.33333333333333331 0.44444444444444442 0.55555555555555558 0.66666666666666663 0.77777777777777779 0.88888888888888884 1
        </DataArray>
      </PointData>
      <CellData Scalars="P">
        <DataArray type="Float32" Name="P" NumberOfComponents="1">
          0.0092652685232859338 -0.0022937642278513517 0.024018672180665328 -0.02071247982717898 0.0047356639686759227 -0.0092597030774758133 0.0071896940295082708 0.003898402154783486 -0.018996522327229606
        </DataArray>
      </CellData>
      <Points>
        <DataArray type="Float32" NumberOfComponents="3" format="ascii">
          -0.092392481445787072 0.21309550613187175 0
          0.0066718041922953029 0.16277529261460524 0
          0.10347447494670202 0.21731891753187504 0
          0.20533327416189706 0.26171014773046436 0
          0.2969313564416674 0.19881645709684923 0
          0.36725845771343657 0.11279419754751623 0
          0.47825018248670914 0.11796237725306899 0
          0.5660638033366896 0.186039160736065 0
          0.67669963169998248 0.1757642335171731 0
          0.74157745323901092 0.085561343536755249 0
        </DataArray>
      </Points>
      <Cells>
        <DataArray type="Int32" Name="connectivity" format="ascii">
          0 1 1 2 2 3 3 4 4 5 5 6 6 7 7 8 8 9 
        </DataArray>
        <DataArray type="Int32" Name="offsets" format="ascii">
          2 4 6 8 10 12 14 16 18 
        </DataArray>
        <DataArray type="Int32" Name="types" format="ascii">
          3 3 3 3 3 3 3 3 3         </DataArray>
      </Cells>
    </Piece>
  </UnstructuredGrid>
</VTKFile>
