<?xml version="1.0"?>
<VTKFile type="UnstructuredGrid" version="0.1" byte_order="LittleEndian">
  <UnstructuredGrid>
    <Piece NumberOfPoints="128" NumberOfCells="127">
      <PointData Scalars="u">
        <DataArray type="Float32" Name="Y" NumberOfComponents="2">

0 0
0.034431083444454696 -0.027274666106367283
0.018223046489404249 -0.036979326287508413
-0.011081144164958701 -0.054453851259119931
-0.051313041459989446 -0.075161434404438052
-0.099633985927638904 -0.095830711600699198
-0.15289061258533562 -0.11439055145794577
-0.20790894676272323 -0.12981877586296267
-0.26171341760924782 -0.14193223983593498
-0.31166854320569087 -0.15114676571565738
-0.35555100504521103 -0.15823270729071104
-0.39156706172902561 -0.16408674774589466
-0.41833418982123749 -0.16953444163304596
-0.43484654891576169 -0.1751723469926427
-0.44044183135449783 -0.18125428603892721
-0.43478294643515403 -0.18762370222361902
-0.41786247692268647 -0.1936931010714219
-0.39003151867103564 -0.19847158937659332
-0.35204787953851346 -0.20064170641661452
-0.30513219131607927 -0.1986861142257732
-0.25101492017861593 -0.19106243349394725
-0.19195339551664636 -0.17642004549961199
-0.13069684855724875 -0.15384603912330891
-0.07038012942085034 -0.12311938747418835
-0.014334047771290215 -0.084944401234119796
0.034187732011352008 -0.041128701869629608
0.072349585608232847 0.0053301476269867545
0.098109768305495573 0.050279499137801317
0.11058313497365028 0.088584572000859702
0.11033341975155569 0.11443560212219686
0.099537973103809213 0.12176083411699321
0.08197936531237536 0.10469351821328546
0.062840194923000414 0.058024343674162926
0.048305934106011118 -0.02243414269914416
0.045009518510383865 -0.13963482994787446
0.059373743235525162 -0.29527493916486752
0.096917791167433903 -0.48997254769773035
0.16159001880806304 -0.72360912601968763
0.25517224607367428 -0.99577174366232168
0.37677697224758461 -1.3062019459650991
0.52243657703956492 -1.6551422007856604
0.6847719009203177 -2.0434652258169814
0.85273484658222809 -2.4724754455181772
1.0114513158263454 -2.943285901321794
1.1422479337853582 -3.4557030268167916
1.2230226630703716 -4.0066064940803328
1.2291988606075419 -4.5879070952310492
1.1355527968072578 -5.1843160471026328
0.91917748156802837 -5.7713636690280943
0.56368221490636983 -6.3143308309799933
0.064382394764217379 -6.7689194187902046
-0.45272219662273028 -7.0890488812038495
-0.88442146775034136 -7.2933589897057622
-1.3356498352410375 -7.3767097904308443
-1.7843346397786857 -7.3424540228509096
-2.2090965434849572 -7.1975956325969284
-2.5904755816678375 -6.9526155547125246
-2.9119753251651477 -6.6209083931496062
-3.1608254149296653 -6.2179311331334528
-3.3284052257367573 -5.7601909955421675
-3.4103201664829088 -5.2642048770207914
-3.4061668660998059 -4.7455483503884475
-3.3190564041619632 -4.2180830315345732
-3.1549818670851106 -3.6934146466303002
-2.9221178991083274 -3.180597815628742
-2.6301287029959441 -2.6860731895656285
-2.2895418796900247 -2.2138013721408134
-1.9112234962480101 -1.7655467047129523
-1.5059688827418825 -1.3412612385453428
-1.0842065468207318 -0.93952271945252919
-0.65580051691250041 -0.55798756032235974
-0.22992950818645339 -0.19382828555817783
0.18498106215328119 0.15586686088628576
0.58129697640175404 0.49374749759404679
0.9522020779091932 0.82191785852859012
1.2917278804874155 1.1417227730774877
1.594793765579493 1.4536060508978126
1.8572596633209366 1.7570421113081449
2.0759877485279592 2.0505394390953287
2.2489053709757436 2.3317119532631327
2.3750585571541496 2.5974115286897823
2.4546442251082108 2.8439118181132939
2.4890098475871558 3.0671304803837365
2.4806115938377027 3.2628743543622249
2.4329256847328686 3.4270904810941687
2.3503123255522445 3.5561055546758849
2.2378365183872093 3.6468375920950078
2.1010546365972034 3.6969663453270103
1.9457792606662934 3.7050529831908361
1.7778369774808429 3.6706043890317996
1.6028344118282745 3.594082468640774
1.4259467188160224 3.4768635345901697
1.2517403792117674 3.3211566008159972
1.0840388295544283 3.1298919185130605
0.9258357261297937 2.9065921469725873
0.779256969625443 2.6552382211512913
0.64556939893820098 2.3801404597581106
0.52523155013097278 2.0858230743040083
0.41798017065445942 1.7769273587895043
0.32294523862821067 1.4581358219576617
0.23878591762153734 1.1341166810611758
0.16383997817093696 0.80948570980239476
0.096279522925577662 0.48878059277677227
0.03426618340243507 0.1764417858546195
-0.023900808231727834 -0.12320653645717754
-0.079650165833924008 -0.40598154934751596
-0.134024188400684 -0.66787795594716681
-0.18759090320451172 -0.90511875821452437
-0.24038883591527432 -1.1142220327794266
-0.29190981319393888 -1.2920828005860547
-0.34112387545906925 -1.4360667700043086
-0.38654832977982789 -1.544110750648177
-0.42636020353004211 -1.6148232028755065
-0.45854800687240777 -1.6475779850822381
-0.48109504997324715 -1.6425950581097577
-0.49218297381126824 -1.6010037008956131
-0.49040108453101239 -1.5248864634565376
-0.47494496132707253 -1.4173051866571043
-0.44578699884696493 -1.2823133205017569
-0.40380229824836911 -1.1249607462532012
-0.35083577883686834 -0.95129766073751909
-0.28970061184869383 -0.76838231176952565
-0.22410411983301184 -0.58429331859801037
-0.15850517595930019 -0.40814126044576893
-0.097916870246159082 -0.25006695501293053
-0.0476795884840003 -0.12120659505736207
-0.01324205605151447 -0.033598104217939732
0 0

        </DataArray>
        <DataArray type="Float32" Name="W" NumberOfComponents="2">

-1.4202113256609918 0.69365471217497221
-1.4141960195167187 0.68857358611534392
-1.4085451163133216 0.68309007467399041
-1.4032634822809813 0.67725005884205691
-1.3983475761992132 0.6710990315495432
-1.3937856568966958 0.66468108939785897
-1.38955820267222 0.65803808262204611
-1.3856385085567109 0.65120897354990204
-1.3819934207501188 0.64422943891900908
-1.3785841662281872 0.63713173461672357
-1.3753672391863518 0.62994482423189158
-1.372295313782794 0.62269475654229778
-1.3693181631658886 0.61540526262808548
-1.3663835763284453 0.60809853119099311
-1.3634382751494327 0.60079611098645758
-1.3604288424167152 0.59351988190776805
-1.3573026763181699 0.58629303099485286
-1.3540089869066503 0.57914096637593704
-1.3504998449531673 0.57209210102750885
-1.3467312835303893 0.5651784396935623
-1.3426644383396615 0.55843590703986723
-1.338266695537885 0.55190436396903464
-1.3335127975348604 0.54562727274677125
-1.3283858402895181 0.53965099060569854
-1.3228780826986846 0.53402369559711071
-1.3169914824193587 0.52879397659595306
-1.3107378752072152 0.52400914949125654
-1.304138728107791 0.51971339073121314
-1.2972244208999439 0.51594580386273348
-1.2900330438167278 0.51273855060994833
-1.2826087398506929 0.51011518190414729
-1.2749996625109778 0.5080892938026853
-1.2672556594219246 0.50666360793801546
-1.2594258232211482 0.50582953778485928
-1.2515560693194934 0.50556725464361185
-1.2436869025780135 0.50584621662449436
-1.2358515217040327 0.50662607680128335
-1.2280743836956218 0.50785784959231262
-1.2203703157084558 0.50948519252157987
-1.2127442242513093 0.51144565693221278
-1.2051914175391192 0.51367177672255826
-1.1976985306366561 0.51609189738688388
-1.1902450266712474 0.51863069569713571
-1.1828052396031661 0.52120939956607781
-1.1753509201143328 0.52374578386909365
-1.1678542383654551 0.52615408654333795
-1.1602911759616488 0.52834505387681663
-1.1526451947416358 0.53022637530777272
-1.1449109954208121 0.53170379265268886
-1.1370980757618783 0.53268314829276697
-1.1292336796931308 0.53307355142291279
-1.1213646262166379 0.53279167608777345
-1.113523637934323 0.53207026877683383
-1.1057374820753887 0.53089666142895997
-1.0980341369553432 0.52926568595216572
-1.0904414233056308 0.52717946641661573
-1.0829856785778653 0.52464698481467409
-1.0756905502598273 0.52168343118851357
-1.0685759729611277 0.51830937305953362
-1.0616573765598216 0.51454979695501712
-1.0549451516834663 0.51043308480447092
-1.0484443772535577 0.5059899897398612
-1.0421547955265522 0.50125267027807918
-1.0360710050592394 0.49625383080006763
-1.0301828323729816 0.49102600193174978
-1.0244758388759951 0.48560097913012606
-1.0189319201294249 0.48000942336789093
-1.0135299586285156 0.47428061560682672
-1.0082464975499286 0.46844234745774777
-1.0030564100945734 0.46252092421340996
-0.99793354607092666 0.4565412530930209
-0.99285134346781712 0.45052698860907175
-0.98778339752929123 0.44450070793129903
-0.982703983120776 0.43848409146959433
-0.97758852804037821 0.43249808719634975
-0.97241403561277739 0.42656304114592108
-0.96715945473179099 0.4206987808213799
-0.96180599486017893 0.41492464272810564
-0.95633738272025015 0.40925943979518226
-0.95074005684905338 0.40372136889909954
-0.9450032961147572 0.39832786291522981
-0.93911927887502578 0.39309539551448003
-0.93308307077789654 0.38803925010361778
-0.92689254122409803 0.38317326668941376
-0.92054821108453988 0.37850958186971151
-0.91405303716815756 0.37405837751729853
-0.90741214187624486 0.36982765300496256
-0.90063249915363452 0.36582303409739325
-0.89372258997047749 0.36204762907708082
-0.88669204191662154 0.35850193952542114
-0.87955126792705496 0.35518382974567231
-0.87231111864643873 0.35208855540433409
-0.86498256154790287 0.34920884887166131
-0.85757639779407191 0.34653505619404079
-0.85010302517201142 0.34405531878571405
-0.84257225247996836 0.34175579185069438
-0.83499316772014742 0.33962089121710437
-0.82737405955791621 0.33763356059138439
-0.81972238889955995 0.33577555207107107
-0.81204480522375344 0.3340277139134516
-0.80434720053461406 0.33237028085622511
-0.79663479250625746 0.33078316354903875
-0.78891222755397272 0.32924623473096964
-0.7811836941764454 0.32773961056458301
-0.77345303694635803 0.32624392594063101
-0.76572386196857156 0.32474060257284182
-0.75799962546952848 0.32321210832919611
-0.75028369842732878 0.32164220555714867
-0.74257940179523718 0.32001618525534903
-0.734890008894303 0.31832108295193384
-0.72721871390883663 0.31654587121347322
-0.71956856802938096 0.31468162297234653
-0.71194238752456396 0.31272163944661463
-0.70434264071414576 0.31066153641796579
-0.69677132325278923 0.30849928305501712
-0.68922983309054298 0.30623518827792912
-0.6817188577293094 0.30387183074465351
-0.67423828675440489 0.30141392973350684
-0.66678716195525622 0.29886815530872796
-0.65936367560916964 0.29624287700527085
-0.65196522473364393 0.29354785073394019
-0.64458852546828249 0.29079384366618849
-0.63722978748923087 0.28799219661916298
-0.62988494386184746 0.28515432317733286
-0.62254992749023197 0.28229114483239248
-0.61522098192874464 0.27941246224833005
-0.60789499248622081 0.276526264813308
-0.60056982404741788 0.2736379842843602

        </DataArray>
        <DataArray type="Float32" Name="u" NumberOfComponents="1">
          0 0.007874015748031496 0.015748031496062992 0.023622047244094488 0.031496062992125984 0.03937007874015748 0.047244094488188976 0.055118110236220472 0.062992125984251968 0.070866141732283464 0.07874015748031496 0.086614173228346455 0.094488188976377951 0.10236220472440945 0.11023622047244094 0.11811023622047244 0.12598425196850394 0.13385826771653545 0.14173228346456693 0.14960629921259844 0.15748031496062992 0.16535433070866143 0.17322834645669291 0.18110236220472442 0.1889763779527559 0.19685039370078741 0.20472440944881889 0.2125984251968504 0.22047244094488189 0.2283464566929134 0.23622047244094488 0.24409448818897639 0.25196850393700787 0.25984251968503935 0.26771653543307089 0.27559055118110237 0.28346456692913385 0.29133858267716534 0.29921259842519687 0.30708661417322836 0.31496062992125984 0.32283464566929132 0.33070866141732286 0.33858267716535434 0.34645669291338582 0.3543307086614173 0.36220472440944884 0.37007874015748032 0.37795275590551181 0.38582677165354329 0.39370078740157483 0.40157480314960631 0.40944881889763779 0.41732283464566927 0.42519685039370081 0.43307086614173229 0.44094488188976377 0.44881889763779526 0.45669291338582679 0.46456692913385828 0.47244094488188976 0.48031496062992124 0.48818897637795278 0.49606299212598426 0.50393700787401574 0.51181102362204722 0.51968503937007871 0.52755905511811019 0.53543307086614178 0.54330708661417326 0.55118110236220474 0.55905511811023623 0.56692913385826771 0.57480314960629919 0.58267716535433067 0.59055118110236215 0.59842519685039375 0.60629921259842523 0.61417322834645671 0.62204724409448819 0.62992125984251968 0.63779527559055116 0.64566929133858264 0.65354330708661412 0.66141732283464572 0.6692913385826772 0.67716535433070868 0.68503937007874016 0.69291338582677164 0.70078740157480313 0.70866141732283461 0.71653543307086609 0.72440944881889768 0.73228346456692917 0.74015748031496065 0.74803149606299213 0.75590551181102361 0.76377952755905509 0.77165354330708658 0.77952755905511806 0.78740157480314965 0.79527559055118113 0.80314960629921262 0.8110236220472441 0.81889763779527558 0.82677165354330706 0.83464566929133854 0.84251968503937003 0.85039370078740162 0.8582677165354331 0.86614173228346458 0.87401574803149606 0.88188976377952755 0.88976377952755903 0.89763779527559051 0.90551181102362199 0.91338582677165359 0.92125984251968507 0.92913385826771655 0.93700787401574803 0.94488188976377951 0.952755905511811 0.96062992125984248 0.96850393700787396 0.97637795275590555 0.98425196850393704 0.99212598425196852 1
        </DataArray>
      </PointData>
      <CellData Scalars="P">
        <DataArray type="Float32" Name="P" NumberOfComponents="1">
          0.0049547804457833597 0.20485801901272857 0.53303415862304182 0.93467720177816049 1.3631088765539616 1.7806192690562064 2.1588828340822954 2.478936725835486 2.7307527596324905 2.9124673070827392 3.0293520971738204 3.0926128100029326 3.1180934335081423 3.124946316987407 3.1343054133206083 3.1679782665821747 3.2471552911945496 3.3911262248296827 3.6159954146465636 3.9334003783128697 4.3492607903580165 4.8626149101394338 5.4646330860592105 6.1379275528694235 6.8562976292721469 7.5850529802918514 8.2820394269299751 8.8994490998941647 9.3864307602662844 9.6924328428335524 9.7711218584857154 9.5846360805726203 9.1078733169656498 8.3324833762392299 7.2702453145096131 5.9555523679999327 4.4467898268644062 2.8264518909308523 1.1998790226154215 -0.30751255678657002 -1.5547020395724991 -2.3915392935428583 -2.6676521789778311 -2.2442918042204947 -1.0095626550065859 1.1028252419000206 4.0918227933497819 7.8659898783180005 12.22231633510401 16.831794856807111 21.237939602857296 23.407914894858745 24.95696266064461 25.849310657381601 26.080056046285602 25.67372874409077 24.681449913587354 23.176745440518399 21.250305546506848 19.004125048107543 16.545510663069241 13.981412358014953 11.413446259849447 8.9338539199528242 6.6225130500259075 4.5449992922476579 2.7516104006527438 1.2772086059738779 0.14171251836695387 -0.64892905915953603 -1.1014303707302395 -1.2336496248507254 -1.0729471001606543 -0.65448129087725471 -0.019481125135671674 0.78648300231012036 1.7152141473851996 2.717575028006626 3.7451261832550546 4.7516889374800488 5.6947974995619939 6.5369975654672681 7.2469453357930051 7.8002622348163611 8.1801073638628132 8.3774415098454735 8.3909722247144156 8.2267873348975478 7.8977021497311837 7.4223615482365481 6.8241503199380356 6.1299725039959201 5.3689626345576311 4.5711891107075893 3.7664033243681327 2.9828790481329159 2.2463764026325794 1.5792548908229225 0.99975162096678227 0.52143464263037886 0.15283752045168061 -0.10272037131457168 -0.2471234889921925 -0.28725496123515865 -0.23459215601244388 -0.10460061842747254 0.084070893173646535 0.31058272081302968 0.55305956529183709 0.78986778147281456 1.0009547996485453 1.1691712061576818 1.2814785566955298 1.3299337680432894 1.3123372349818692 1.232439717945996 1.0996249916931014 0.92802272610386793 0.73505936358379564 0.53952273074240287 0.35929603131997839 0.20900404882360857 0.097901791879107705 0.028413442209284854 -0.0042160700061963981 -0.010679880740034347 -0.0043452926667902503
        </DataArray>
      </CellData>
      <Points>
        <DataArray type="Float32" NumberOfComponents="3" format="ascii">
          -1.4202113256609918 0.69365471217497221 0
          -1.4141960195167187 0.68857358611534392 0
          -1.4085451163133216 0.68309007467399041 0
          -1.4032634822809813 0.67725005884205691 0
          -1.3983475761992132 0.6710990315495432 0
          -1.3937856568966958 0.66468108939785897 0
          -1.38955820267222 0.65803808262204611 0
          -1.3856385085567109 0.65120897354990204 0
          -1.3819934207501188 0.64422943891900908 0
          -1.3785841662281872 0.63713173461672357 0
          -1.3753672391863518 0.62994482423189158 0
          -1.372295313782794 0.62269475654229778 0
          -1.3693181631658886 0.61540526262808548 0
          -1.3663835763284453 0.60809853119099311 0
          -1.3634382751494327 0.60079611098645758 0
          -1.3604288424167152 0.59351988190776805 0
          -1.3573026763181699 0.58629303099485286 0
          -1.3540089869066503 0.57914096637593704 0
          -1.3504998449531673 0.57209210102750885 0
          -1.3467312835303893 0.5651784396935623 0
          -1.3426644383396615 0.55843590703986723 0
          -1.338266695537885 0.55190436396903464 0
          -1.3335127975348604 0.54562727274677125 0
          -1.3283858402895181 0.53965099060569854 0
          -1.3228780826986846 0.53402369559711071 0
          -1.3169914824193587 0.52879397659595306 0
          -1.3107378752072152 0.52400914949125654 0
          -1.304138728107791 0.51971339073121314 0
          -1.2972244208999439 0.51594580386273348 0
          -1.2900330438167278 0.51273855060994833 0
          -1.2826087398506929 0.51011518190414729 0
          -1.2749996625109778 0.5080892938026853 0
          -1.2672556594219246 0.50666360793801546 0
          -1.2594258232211482 0.50582953778485928 0
          -1.2515560693194934 0.50556725464361185 0
          -1.2436869025780135 0.50584621662449436 0
          -1.2358515217040327 0.50662607680128335 0
          -1.2280743836956218 0.50785784959231262 0
          -1.2203703157084558 0.50948519252157987 0
          -1.2127442242513093 0.51144565693221278 0
          -1.2051914175391192 0.51367177672255826 0
          -1.1976985306366561 0.51609189738688388 0
          -1.1902450266712474 0.51863069569713571 0
          -1.1828052396031661 0.52120939956607781 0
          -1.1753509201143328 0.52374578386909365 0
          -1.1678542383654551 0.52615408654333795 0
          -1.1602911759616488 0.52834505387681663 0
          -1.1526451947416358 0.53022637530777272 0
          -1.1449109954208121 0.53170379265268886 0
          -1.1370980757618783 0.53268314829276697 0
          -1.1292336796931308 0.53307355142291279 0
          -1.1213646262166379 0.53279167608777345 0
          -1.113523637934323 0.53207026877683383 0
          -1.1057374820753887 0.53089666142895997 0
          -1.0980341369553432 0.52926568595216572 0
          -1.0904414233056308 0.52717946641661573 0
          -1.0829856785778653 0.52464698481467409 0
          -1.0756905502598273 0.52168343118851357 0
          -1.0685759729611277 0.51830937305953362 0
          -1.0616573765598216 0.51454979695501712 0
          -1.0549451516834663 0.51043308480447092 0
          -1.0484443772535577 0.5059899897398612 0
          -1.0421547955265522 0.50125267027807918 0
          -1.0360710050592394 0.49625383080006763 0
          -1.0301828323729816 0.49102600193174978 0
          -1.0244758388759951 0.48560097913012606 0
          -1.0189319201294249 0.48000942336789093 0
          -1.0135299586285156 0.47428061560682672 0
          -1.0082464975499286 0.46844234745774777 0
          -1.0030564100945734 0.46252092421340996 0
          -0.99793354607092666 0.4565412530930209 0
          -0.99285134346781712 0.45052698860907175 0
          -0.98778339752929123 0.44450070793129903 0
          -0.982703983120776 0.43848409146959433 0
          -0.97758852804037821 0.43249808719634975 0
          -0.97241403561277739 0.42656304114592108 0
          -0.96715945473179099 0.4206987808213799 0
          -0.96180599486017893 0.41492464272810564 0
          -0.95633738272025015 0.40925943979518226 0
          -0.95074005684905338 0.40372136889909954 0
          -0.9450032961147572 0.39832786291522981 0
          -0.93911927887502578 0.39309539551448003 0
          -0.93308307077789654 0.38803925010361778 0
          -0.92689254122409803 0.38317326668941376 0
          -0.92054821108453988 0.37850958186971151 0
          -0.91405303716815756 0.37405837751729853 0
          -0.90741214187624486 0.36982765300496256 0
          -0.90063249915363452 0.36582303409739325 0
          -0.89372258997047749 0.36204762907708082 0
          -0.88669204191662154 0.35850193952542114 0
          -0.87955126792705496 0.35518382974567231 0
          -0.87231111864643873 0.35208855540433409 0
          -0.86498256154790287 0.34920884887166131 0
          -0.85757639779407191 0.34653505619404079 0
          -0.85010302517201142 0.34405531878571405 0
          -0.84257225247996836 0.34175579185069438 0
          -0.83499316772014742 0.33962089121710437 0
          -0.82737405955791621 0.33763356059138439 0
          -0.81972238889955995 0.33577555207107107 0
          -0.81204480522375344 0.3340277139134516 0
          -0.80434720053461406 0.33237028085622511 0
          -0.79663479250625746 0.33078316354903875 0
          -0.78891222755397272 0.32924623473096964 0
          -0.7811836941764454 0.32773961056458301 0
          -0.77345303694635803 0.32624392594063101 0
          -0.76572386196857156 0.32474060257284182 0
          -0.75799962546952848 0.32321210832919611 0
          -0.75028369842732878 0.32164220555714867 0
          -0.74257940179523718 0.32001618525534903 0
          -0.734890008894303 0.31832108295193384 0
          -0.72721871390883663 0.31654587121347322 0
          -0.71956856802938096 0.31468162297234653 0
          -0.71194238752456396 0.31272163944661463 0
          -0.70434264071414576 0.31066153641796579 0
          -0.69677132325278923 0.30849928305501712 0
          -0.68922983309054298 0.30623518827792912 0
          -0.6817188577293094 0.30387183074465351 0
          -0.67423828675440489 0.30141392973350684 0
          -0.66678716195525622 0.29886815530872796 0
          -0.65936367560916964 0.29624287700527085 0
          -0.65196522473364393 0.29354785073394019 0
          -0.64458852546828249 0.29079384366618849 0
          -0.63722978748923087 0.28799219661916298 0
          -0.62988494386184746 0.28515432317733286 0
          -0.62254992749023197 0.28229114483239248 0
          -0.61522098192874464 0.27941246224833005 0
          -0.60789499248622081 0.276526264813308 0
          -0.60056982404741788 0.2736379842843602 0
        </DataArray>
      </Points>
      <Cells>
        <DataArray type="Int32" Name="connectivity" format="ascii">
          0 1 1 2 2 3 3 4 4 5 5 6 6 7 7 8 8 9 9 10 10 11 11 12 12 13 13 14 14 15 15 16 16 17 17 18 18 19 19 20 20 21 21 22 22 23 23 24 24 25 25 26 26 27 27 28 28 29 29 30 30 31 31 32 32 33 33 34 34 35 35 36 36 37 37 38 38 39 39 40 40 41 41 42 42 43 43 44 44 45 45 46 46 47 47 48 48 49 49 50 50 51 51 52 52 53 53 54 54 55 55 56 56 57 57 58 58 59 59 60 60 61 61 62 62 63 63 64 64 65 65 66 66 67 67 68 68 69 69 70 70 71 71 72 72 73 73 74 74 75 75 76 76 77 77 78 78 79 79 80 80 81 81 82 82 83 83 84 84 85 85 86 86 87 87 88 88 89 89 90 90 91 91 92 92 93 93 94 94 95 95 96 96 97 97 98 98 99 99 100 100 101 101 102 102 103 103 104 104 105 105 106 106 107 107 108 108 109 109 110 110 111 111 112 112 113 113 114 114 115 115 116 116 117 117 118 118 119 119 120 120 121 121 122 122 123 123 124 124 125 125 126 126 127 
        </DataArray>
        <DataArray type="Int32" Name="offsets" format="ascii">
          2 4 6 8 10 12 14 16 18 20 22 24 26 28 30 32 34 36 38 40 42 44 46 48 50 52 54 56 58 60 62 64 66 68 70 72 74 76 78 80 82 84 86 88 90 92 94 96 98 100 102 104 106 108 110 112 114 116 118 120 122 124 126 128 130 132 134 136 138 140 142 144 146 148 150 152 154 156 158 160 162 164 166 168 170 172 174 176 178 180 182 184 186 188 190 192 194 196 198 200 202 204 206 208 210 212 214 216 218 220 222 224 226 228 230 232 234 236 238 240 242 244 246 248 250 252 254 
        </DataArray>
        <DataArray type="Int32" Name="types" format="ascii">
          3 3 3 3 3 3 3 3 3 3 3 3 3 3 3 3 3 3 3 3 3 3 3 3 3 3 3 3 3 3 3 3 3 3 3 3 3 3 3 3 3 3 3 3 3 3 3 3 3 3 3 3 3 3 3 3 3 3 3 3 3 3 3 3 3 3 3 3 3 3 3 3 3 3 3 3 3 3 3 3 3 3 3 3 3 3 3 3 3 3 3 3 3 3 3 3 3 3 3 3 3 3 3 3 3 3 3 3 3 3 3 3 3 3 3 3 3 3 3 3 3 3 3 3 3 3 3         </DataArray>
      </Cells>
    </Piece>
  </UnstructuredGrid>
</VTKFile>
<!-- DATA


-->
