<?xml version="1.0"?>
<VTKFile type="UnstructuredGrid" version="0.1" byte_order="LittleEndian">
  <UnstructuredGrid>
    <Piece NumberOfPoints="128" NumberOfCells="127">
      <PointData Scalars="u">
        <DataArray type="Float32" Name="Y" NumberOfComponents="2">

0 0
0.025297730126130135 -0.035703722987716187
0.033325350439197883 -0.031193768334438571
0.047852009041637542 -0.015539269027321143
0.065933038253235557 0.012314878265357519
0.084457127289155678 0.052717831051436903
0.10034820511488919 0.10521858652386529
0.11080051840774652 0.16855068568533166
0.11351428006374864 0.24070230948209617
0.10689856239340259 0.31906527348381902
0.090212937038922733 0.40064416984092721
0.063628831208281694 0.48229779928081506
0.028203773506636141 0.56098082812599992
-0.014225787729862268 0.63395494913519967
-0.061216961793748421 0.69894518725818566
-0.10993539889281619 0.75422686335318279
-0.15738788170447912 0.79864006961242573
-0.20064977227229577 0.83153926426250913
-0.23706979063571237 0.85269413805755256
-0.26444126541421642 0.8621633063732449
-0.28113537339638783 0.86016441851693515
-0.28619656463999688 0.84696327815730887
-0.27940250738478084 0.82280113588430748
-0.26129030146421012 0.7878740527634468
-0.23314789797234367 0.74237157022425571
-0.19696568679495213 0.68657408987794732
-0.15533959041979825 0.62099952629902322
-0.11131545113515939 0.54658030463436036
-0.068166682084375735 0.46484247010848928
-0.029104224763910672 0.37805109508399842
0.0030700175801255526 0.28928251843110675
0.026339246511325864 0.20238673770263463
0.039833772555524033 0.12181452660256449
0.04412272534188949 0.052304093125604932
0.041375556396731364 -0.0015506288473817636
0.035342856836673403 -0.035798503758123296
0.031129892338845895 -0.047620509918030414
0.034771695640581322 -0.035722039178593394
0.052658339784089091 -0.00054694952584287101
0.090893110721791875 0.055741794850663828
0.15468488274461237 0.12952916724508148
0.2478728750332134 0.21623101308039763
0.37265699106046651 0.31092168092846145
0.52956632980083007 0.40901255701099104
0.71765266527314497 0.50688706384689663
0.93485582834413838 0.60241770250236337
1.178462114555785 0.69532461976871873
1.4455680123830907 0.78737334797832037
1.7334672600593364 0.88244246290024164
2.0398933011865483 0.98651318126154242
2.3630641841067028 1.1076389419028534
2.6880971893767884 1.2848090362079387
3.0040669032411569 1.5292309326153519
3.3134161782893479 1.8057968308659551
3.6032648583254518 2.1126433953541106
3.8615401446152329 2.446559645123441
4.077295195077304 2.8027220365892669
4.2410834672744668 3.1745555104557135
4.3453606776260001 3.5537512377612162
4.3848743763043041 3.930457916539686
4.3569929378209773 4.2936457006699715
4.2619238064798761 4.6316216247019968
4.1027767969910096 4.9326553093095908
3.8854423573554242 5.1856571136251759
3.6182754106568504 5.3808410618429345
3.3115995266898204 5.510304238234176
2.9770695288885247 5.5684636901330276
2.6269489425450128 5.552309957768288
2.273368644261216 5.4614600786602407
1.9276331501164072 5.2980180866597184
1.5996317272758198 5.0662733162322136
1.2973952895567258 4.7722827837992785
1.0268202845969125 4.4233916700312577
0.79156114453001825 4.027745354568137
0.59307636196485225 3.5938389594440814
0.43080174842770669 3.130138278856176
0.30241851890021348 2.6447919307739562
0.20418301675470363 2.1454408898329222
0.13128789928837908 1.6391199453091063
0.078229906823694129 1.1322370139200546
0.039165446344705951 0.63061089443331297
0.0082409634411405325 0.13954575869484268
-0.020110309026043161 -0.33607906390333708
-0.050910470260290462 -0.79172322690993424
-0.088421422566748495 -1.2231190326344141
-0.1359745147261158 -1.6262357046996727
-0.19584813404298496 -1.9972803447897367
-0.26919608579056098 -2.3327365287988444
-0.3560292864537184 -2.6294366111875269
-0.45525226565333643 -2.8846595171069644
-0.56475406213682156 -3.0962424734930667
-0.68155036231316024 -3.2626930964315703
-0.80197043825595649 -3.3832877586821097
-0.92187902555678414 -3.45814330782544
-1.0369202635101809 -3.4882518953006345
-1.1427687075412487 -3.4754726016722106
-1.2353716137622752 -3.4224782084228935
-1.3111673788672169 -3.3326602603091953
-1.3672671561584637 -3.2099998512355072
-1.4015899872824844 -3.0589148027366386
-1.4129458404098263 -2.8840957151130144
-1.40106520452091 -2.6903436090161428
-1.3665778395734423 -2.4824206297874309
-1.3109465159147917 -2.2649228452898287
-1.2363638467388243 -2.0421809488609166
-1.1456215490391619 -1.8181911571443516
-1.0419617534487509 -1.5965752157147322
-0.9289195137443379 -1.3805655688953256
-0.81016469719887052 -1.1730096718610041
-0.68935020571305494 -0.9763862657012824
-0.56997218455961862 -0.79282622072927988
-0.45524663527467046 -0.62413121090586199
-0.34800571002703001 -0.47178486069129638
-0.25061590645311271 -0.33695290306218489
-0.16491935778660302 -0.22047106370848699
-0.092198373082053434 -0.12282159080883422
-0.033162308959342371 -0.04410133807452514
0.012045218270890329 0.016014134767306169
0.043821764154749351 0.058305013677837796
0.063067899618472908 0.084034526883576113
0.071139682258513415 0.094963805183376063
0.069795969647198447 0.093350100464050317
0.061144289289019806 0.081925764108746926
0.047588015322298172 0.063857367832076226
0.031776295846176347 0.042686528039599984
0.016556724582900046 0.022256197715357407
0.0049294005733558849 0.0066282543741239758
0 0

        </DataArray>
        <DataArray type="Float32" Name="W" NumberOfComponents="2">

-3.6817759703253552 1.6403764194922374
-3.6766657166298122 1.6343858708255627
-3.6711201824731288 1.6287958353370808
-3.6651608616425726 1.6236491861522402
-3.6588169824446339 1.6189847749692923
-3.6521245374998887 1.6148359530810958
-3.6451250065376688 1.6112292798900032
-3.6378638316041578 1.6081834921388443
-3.6303887220656978 1.6057087882580081
-3.6227478789913867 1.6038064588624135
-3.6149882337538917 1.6024688686844599
-3.6071537935787115 1.6016797695373006
-3.5992841776984288 1.601414900709728
-3.5914134128891595 1.6016428146692383
-3.5835690382443901 1.6023258537410043
-3.5757715481989556 1.6034211984817381
-3.5680341822364463 1.6048819109356049
-3.5603630513351381 1.6066579052405952
-3.5527575764601105 1.6086967929131657
-3.5452112040354575 1.6109445689130926
-3.5377123573236142 1.6133461254190546
-3.5302455802987724 1.6158456012837483
-3.5227928306979575 1.6183865947103986
-3.5153348799450894 1.620912283371305
-3.5078527780374196 1.6233655087919565
-3.5003293400009534 1.6256888893706176
-3.4927506064362781 1.6278250280611328
-3.4851072240042087 1.6297168758215661
-3.4773956833253821 1.6313082999365855
-3.4696193434550082 1.6325448871496153
-3.4617891663550284 1.6333749857211377
-3.4539240845595947 1.6337509595202218
-3.4460509333695382 1.6336305936724436
-3.4382038975154474 1.632978558943869
-3.4304234519146353 1.6317678156905411
-3.4227548154452818 1.6299808229024511
-3.4152459817455671 1.6276104180113702
-3.4079454359972154 1.6246602513087347
-3.4008997043428306 1.6211446948412884
-3.3941509060823032 1.6170881960346228
-3.3877344829794902 1.6125241045189012
-3.3816772629692431 1.6074930582283717
-3.3759959792657681 1.6020410631053539
-3.3706963159540875 1.5962174325829788
-3.3657724956750474 1.5900727645106154
-3.3612073727679372 1.5836571242186872
-3.3569729538674196 1.5770185764497648
-3.3530312426192923 1.5702021718182089
-3.3493352979305238 1.5632494521184739
-3.3458304051394299 1.5561984993801363
-3.3424552837096102 1.5490845204918766
-3.3391432895082338 1.5419409345336033
-3.3356646326433452 1.5348770063108386
-3.3319997226359876 1.5279078895406586
-3.3281293793980606 1.5210507308975563
-3.3240356318111202 1.5143245545344135
-3.3197024662577652 1.5077500630457827
-3.3151165053535538 1.5013493384445586
-3.310267593669737 1.4951454345328914
-3.3051492655230796 1.4891618617640592
-3.2997590706751212 1.4834219764533136
-3.2940987375381066 1.4779482969006741
-3.2881741603504553 1.4727617783836042
-3.2819952063916134 1.4678810858172013
-3.2755753507799041 1.4633219061331955
-3.2689311584533218 1.4590963414862532
-3.2620816440754434 1.4552124192172675
-3.2550475493882263 1.4516737456678155
-3.2478505828153108 1.4484793195688734
-3.2405126672860352 1.445623508291739
-3.2330552392967924 1.4430961783111422
-3.2254986357262978 1.440882961172159
-3.2178615958810948 1.4389656290637722
-3.2101608958921521 1.4373225502635119
-3.2024111221306013 1.4359291941940604
-3.1946245807843616 1.4347586581591045
-3.1868113328511307 1.433782192252977
-3.1789793379235536 1.4329697045957974
-3.1711346863207743 1.432290235084825
-3.1632818971704055 1.4317123915531869
-3.1554242596373592 1.4312047470549596
-3.1475641952520723 1.4307362006194322
-3.1397036208543487 1.4302763060952346
-3.1318442937540567 1.4297955746531492
-3.1239881231199456 1.429265756272841
-3.1161374342337718 1.4286601043278275
-3.1082951750475281 1.4279536254849365
-3.100465057454338 1.4271233148596059
-3.0926516288322765 1.4261483740342389
-3.084860272725777 1.4250104074564358
-3.077097140927485 1.4236935911532771
-3.0693690225959172 1.422184806833265
-3.0616831592215656 1.4204737344252498
-3.0540470170318845 1.4185528969542045
-3.0464680305921648 1.4164176533060728
-3.038953332727397 1.4140661367212313
-3.0315094863288934 1.4114991395350789
-3.0241422330683765 1.4087199474655598
-3.0168562725638379 1.4057341293338126
-3.0096550832582465 1.4025492902296457
-3.0025407933899033 1.3991747975974849
-2.9955141072032014 1.3956214904085116
-2.9885742882347004 1.3919013814861791
-2.9817191983568496 1.3880273622423569
-2.9749453884708426 1.384012917711446
-2.968248234451714 1.3798718580395024
-2.9616221102393259 1.375618070713112
-2.9550605888559396 1.3712652960078711
-2.9485566615855352 1.3668269265759354
-2.9421029655117241 1.3623158309051162
-2.9356920100037667 1.3577441996401636
-2.9293163934834743 1.3531234134735353
-2.9229690028229491 1.3484639314473759
-2.9166431889433428 1.343775198975091
-2.910332913542681 1.3390655755722343
-2.9040328633126506 1.3343422830474279
-2.8977385294456877 1.3296113756080736
-2.8914462516182451 1.324877733859406
-2.8851532268971507 1.3201450849224543
-2.8788574850920954 1.3154160508068384
-2.8725578329197883 1.3106922267308225
-2.866253769926483 1.3059742903101035
-2.859945379435533 1.30126214150512
-2.8536331978762544 1.2965550720238435
-2.8473180657695214 1.2918519616458839
-2.8410009634750812 1.2871514977993721
-2.8346828346354522 1.2824524138210245
-2.8283644001651265 1.2777537407900732

        </DataArray>
        <DataArray type="Float32" Name="u" NumberOfComponents="1">
          0 0.007874015748031496 0.015748031496062992 0.023622047244094488 0.031496062992125984 0.03937007874015748 0.047244094488188976 0.055118110236220472 0.062992125984251968 0.070866141732283464 0.07874015748031496 0.086614173228346455 0.094488188976377951 0.10236220472440945 0.11023622047244094 0.11811023622047244 0.12598425196850394 0.13385826771653545 0.14173228346456693 0.14960629921259844 0.15748031496062992 0.16535433070866143 0.17322834645669291 0.18110236220472442 0.1889763779527559 0.19685039370078741 0.20472440944881889 0.2125984251968504 0.22047244094488189 0.2283464566929134 0.23622047244094488 0.24409448818897639 0.25196850393700787 0.25984251968503935 0.26771653543307089 0.27559055118110237 0.28346456692913385 0.29133858267716534 0.29921259842519687 0.30708661417322836 0.31496062992125984 0.32283464566929132 0.33070866141732286 0.33858267716535434 0.34645669291338582 0.3543307086614173 0.36220472440944884 0.37007874015748032 0.37795275590551181 0.38582677165354329 0.39370078740157483 0.40157480314960631 0.40944881889763779 0.41732283464566927 0.42519685039370081 0.43307086614173229 0.44094488188976377 0.44881889763779526 0.45669291338582679 0.46456692913385828 0.47244094488188976 0.48031496062992124 0.48818897637795278 0.49606299212598426 0.50393700787401574 0.51181102362204722 0.51968503937007871 0.52755905511811019 0.53543307086614178 0.54330708661417326 0.55118110236220474 0.55905511811023623 0.56692913385826771 0.57480314960629919 0.58267716535433067 0.59055118110236215 0.59842519685039375 0.60629921259842523 0.61417322834645671 0.62204724409448819 0.62992125984251968 0.63779527559055116 0.64566929133858264 0.65354330708661412 0.66141732283464572 0.6692913385826772 0.67716535433070868 0.68503937007874016 0.69291338582677164 0.70078740157480313 0.70866141732283461 0.71653543307086609 0.72440944881889768 0.73228346456692917 0.74015748031496065 0.74803149606299213 0.75590551181102361 0.76377952755905509 0.77165354330708658 0.77952755905511806 0.78740157480314965 0.79527559055118113 0.80314960629921262 0.8110236220472441 0.81889763779527558 0.82677165354330706 0.83464566929133854 0.84251968503937003 0.85039370078740162 0.8582677165354331 0.86614173228346458 0.87401574803149606 0.88188976377952755 0.88976377952755903 0.89763779527559051 0.90551181102362199 0.91338582677165359 0.92125984251968507 0.92913385826771655 0.93700787401574803 0.94488188976377951 0.952755905511811 0.96062992125984248 0.96850393700787396 0.97637795275590555 0.98425196850393704 0.99212598425196852 1
        </DataArray>
      </PointData>
      <CellData Scalars="P">
        <DataArray type="Float32" Name="P" NumberOfComponents="1">
          0.0037795152313001654 0.14133215136970981 0.40980070819677616 0.80570955066229577 1.3206078052066106 1.9408431019712158 2.6477646862362891 3.4183780778777439 4.2264216927939646 5.0437884551208159 5.842178019979257 6.59484198215499 7.2782774732296893 7.8737335621517426 8.3684172606833336 8.7563172779447029 9.0385985993633025 9.223554207003545 9.3261276351451876 9.3670392532998168 9.3715601229302301 9.367982057724058 9.3858348369705489 9.4539058365906694 9.5981277923892261 9.8394196772522857 10.191593935472287 10.659477465071539 11.237427088525715 11.908442961025907 12.644083814220421 13.405355135414116 14.144668248690827 14.808855111165698 15.343080886371245 15.69534515595325 15.821132333315989 15.687694096960882 15.277447163917028 14.590059969455075 13.64297380922096 12.470330299159649 11.12051676771677 9.6527504457967623 8.1332651043922457 6.6317202867436409 5.2184223859203422 3.9628427956926036 2.9337633004498644 2.2011937509393031 1.8400041803405291 3.0038024600697328 4.3764582497166327 5.9352366965104313 7.6431263577028243 9.4500982134801852 11.295405705964813 13.110741725746081 14.824042004681152 16.363688117930526 17.662826688928323 18.663495908125444 19.320247247674519 19.602977284693573 19.498744395436752 19.012433620140914 18.166239788132582 16.998049319386187 15.558899158804476 13.909763569012545 12.117957626703143 10.253448312095045 8.3853343209829401 6.5787029776893426 4.8920078788836854 3.3750449116182599 2.0675457287678665 0.99836217545098993 0.18518478069237426 -0.36527733740224705 -0.65673156028808422 -0.70242368368162722 -0.52400950960547821 -0.15022911106009121 0.38457124486618449 1.0420289969370351 1.7814268061522134 2.5613820364329545 3.3415145830428439 4.0840367764710939 4.7552038383798578 5.3265615333932219 5.7759308241889586 6.0880783484240606 6.2550363405604221 6.2760552278180519 6.1571947528635933 5.910582820366133 5.5533928962871215 5.1066085193224291 4.5936556868382841 4.0389896761354995 3.4667221597141316 2.8993678497443529 2.3567784114633286 1.8553162928640792 1.4073037182226176 1.0207635416260794 0.69944992476155932 0.44314870378866683 0.2482105879423491 0.10826575923980612 0.015056885807822145 -0.040680016176769689 -0.068360063799533771 -0.076789379164268937 -0.073561028439142279 -0.064652223897010072 -0.054247243586180105 -0.044786143646761631 -0.037213635733130836 -0.031378254681713097 -0.026512044030684651 -0.021708044194416704 -0.016308769966150324 -0.010124415391133904 -0.003414176885544338
        </DataArray>
      </CellData>
      <Points>
        <DataArray type="Float32" NumberOfComponents="3" format="ascii">
          -3.6817759703253552 1.6403764194922374 0
          -3.6766657166298122 1.6343858708255627 0
          -3.6711201824731288 1.6287958353370808 0
          -3.6651608616425726 1.6236491861522402 0
          -3.6588169824446339 1.6189847749692923 0
          -3.6521245374998887 1.6148359530810958 0
          -3.6451250065376688 1.6112292798900032 0
          -3.6378638316041578 1.6081834921388443 0
          -3.6303887220656978 1.6057087882580081 0
          -3.6227478789913867 1.6038064588624135 0
          -3.6149882337538917 1.6024688686844599 0
          -3.6071537935787115 1.6016797695373006 0
          -3.5992841776984288 1.601414900709728 0
          -3.5914134128891595 1.6016428146692383 0
          -3.5835690382443901 1.6023258537410043 0
          -3.5757715481989556 1.6034211984817381 0
          -3.5680341822364463 1.6048819109356049 0
          -3.5603630513351381 1.6066579052405952 0
          -3.5527575764601105 1.6086967929131657 0
          -3.5452112040354575 1.6109445689130926 0
          -3.5377123573236142 1.6133461254190546 0
          -3.5302455802987724 1.6158456012837483 0
          -3.5227928306979575 1.6183865947103986 0
          -3.5153348799450894 1.620912283371305 0
          -3.5078527780374196 1.6233655087919565 0
          -3.5003293400009534 1.6256888893706176 0
          -3.4927506064362781 1.6278250280611328 0
          -3.4851072240042087 1.6297168758215661 0
          -3.4773956833253821 1.6313082999365855 0
          -3.4696193434550082 1.6325448871496153 0
          -3.4617891663550284 1.6333749857211377 0
          -3.4539240845595947 1.6337509595202218 0
          -3.4460509333695382 1.6336305936724436 0
          -3.4382038975154474 1.632978558943869 0
          -3.4304234519146353 1.6317678156905411 0
          -3.4227548154452818 1.6299808229024511 0
          -3.4152459817455671 1.6276104180113702 0
          -3.4079454359972154 1.6246602513087347 0
          -3.4008997043428306 1.6211446948412884 0
          -3.3941509060823032 1.6170881960346228 0
          -3.3877344829794902 1.6125241045189012 0
          -3.3816772629692431 1.6074930582283717 0
          -3.3759959792657681 1.6020410631053539 0
          -3.3706963159540875 1.5962174325829788 0
          -3.3657724956750474 1.5900727645106154 0
          -3.3612073727679372 1.5836571242186872 0
          -3.3569729538674196 1.5770185764497648 0
          -3.3530312426192923 1.5702021718182089 0
          -3.3493352979305238 1.5632494521184739 0
          -3.3458304051394299 1.5561984993801363 0
          -3.3424552837096102 1.5490845204918766 0
          -3.3391432895082338 1.5419409345336033 0
          -3.3356646326433452 1.5348770063108386 0
          -3.3319997226359876 1.5279078895406586 0
          -3.3281293793980606 1.5210507308975563 0
          -3.3240356318111202 1.5143245545344135 0
          -3.3197024662577652 1.5077500630457827 0
          -3.3151165053535538 1.5013493384445586 0
          -3.310267593669737 1.4951454345328914 0
          -3.3051492655230796 1.4891618617640592 0
          -3.2997590706751212 1.4834219764533136 0
          -3.2940987375381066 1.4779482969006741 0
          -3.2881741603504553 1.4727617783836042 0
          -3.2819952063916134 1.4678810858172013 0
          -3.2755753507799041 1.4633219061331955 0
          -3.2689311584533218 1.4590963414862532 0
          -3.2620816440754434 1.4552124192172675 0
          -3.2550475493882263 1.4516737456678155 0
          -3.2478505828153108 1.4484793195688734 0
          -3.2405126672860352 1.445623508291739 0
          -3.2330552392967924 1.4430961783111422 0
          -3.2254986357262978 1.440882961172159 0
          -3.2178615958810948 1.4389656290637722 0
          -3.2101608958921521 1.4373225502635119 0
          -3.2024111221306013 1.4359291941940604 0
          -3.1946245807843616 1.4347586581591045 0
          -3.1868113328511307 1.433782192252977 0
          -3.1789793379235536 1.4329697045957974 0
          -3.1711346863207743 1.432290235084825 0
          -3.1632818971704055 1.4317123915531869 0
          -3.1554242596373592 1.4312047470549596 0
          -3.1475641952520723 1.4307362006194322 0
          -3.1397036208543487 1.4302763060952346 0
          -3.1318442937540567 1.4297955746531492 0
          -3.1239881231199456 1.429265756272841 0
          -3.1161374342337718 1.4286601043278275 0
          -3.1082951750475281 1.4279536254849365 0
          -3.100465057454338 1.4271233148596059 0
          -3.0926516288322765 1.4261483740342389 0
          -3.084860272725777 1.4250104074564358 0
          -3.077097140927485 1.4236935911532771 0
          -3.0693690225959172 1.422184806833265 0
          -3.0616831592215656 1.4204737344252498 0
          -3.0540470170318845 1.4185528969542045 0
          -3.0464680305921648 1.4164176533060728 0
          -3.038953332727397 1.4140661367212313 0
          -3.0315094863288934 1.4114991395350789 0
          -3.0241422330683765 1.4087199474655598 0
          -3.0168562725638379 1.4057341293338126 0
          -3.0096550832582465 1.4025492902296457 0
          -3.0025407933899033 1.3991747975974849 0
          -2.9955141072032014 1.3956214904085116 0
          -2.9885742882347004 1.3919013814861791 0
          -2.9817191983568496 1.3880273622423569 0
          -2.9749453884708426 1.384012917711446 0
          -2.968248234451714 1.3798718580395024 0
          -2.9616221102393259 1.375618070713112 0
          -2.9550605888559396 1.3712652960078711 0
          -2.9485566615855352 1.3668269265759354 0
          -2.9421029655117241 1.3623158309051162 0
          -2.9356920100037667 1.3577441996401636 0
          -2.9293163934834743 1.3531234134735353 0
          -2.9229690028229491 1.3484639314473759 0
          -2.9166431889433428 1.343775198975091 0
          -2.910332913542681 1.3390655755722343 0
          -2.9040328633126506 1.3343422830474279 0
          -2.8977385294456877 1.3296113756080736 0
          -2.8914462516182451 1.324877733859406 0
          -2.8851532268971507 1.3201450849224543 0
          -2.8788574850920954 1.3154160508068384 0
          -2.8725578329197883 1.3106922267308225 0
          -2.866253769926483 1.3059742903101035 0
          -2.859945379435533 1.30126214150512 0
          -2.8536331978762544 1.2965550720238435 0
          -2.8473180657695214 1.2918519616458839 0
          -2.8410009634750812 1.2871514977993721 0
          -2.8346828346354522 1.2824524138210245 0
          -2.8283644001651265 1.2777537407900732 0
        </DataArray>
      </Points>
      <Cells>
        <DataArray type="Int32" Name="connectivity" format="ascii">
          0 1 1 2 2 3 3 4 4 5 5 6 6 7 7 8 8 9 9 10 10 11 11 12 12 13 13 14 14 15 15 16 16 17 17 18 18 19 19 20 20 21 21 22 22 23 23 24 24 25 25 26 26 27 27 28 28 29 29 30 30 31 31 32 32 33 33 34 34 35 35 36 36 37 37 38 38 39 39 40 40 41 41 42 42 43 43 44 44 45 45 46 46 47 47 48 48 49 49 50 50 51 51 52 52 53 53 54 54 55 55 56 56 57 57 58 58 59 59 60 60 61 61 62 62 63 63 64 64 65 65 66 66 67 67 68 68 69 69 70 70 71 71 72 72 73 73 74 74 75 75 76 76 77 77 78 78 79 79 80 80 81 81 82 82 83 83 84 84 85 85 86 86 87 87 88 88 89 89 90 90 91 91 92 92 93 93 94 94 95 95 96 96 97 97 98 98 99 99 100 100 101 101 102 102 103 103 104 104 105 105 106 106 107 107 108 108 109 109 110 110 111 111 112 112 113 113 114 114 115 115 116 116 117 117 118 118 119 119 120 120 121 121 122 122 123 123 124 124 125 125 126 126 127 
        </DataArray>
        <DataArray type="Int32" Name="offsets" format="ascii">
          2 4 6 8 10 12 14 16 18 20 22 24 26 28 30 32 34 36 38 40 42 44 46 48 50 52 54 56 58 60 62 64 66 68 70 72 74 76 78 80 82 84 86 88 90 92 94 96 98 100 102 104 106 108 110 112 114 116 118 120 122 124 126 128 130 132 134 136 138 140 142 144 146 148 150 152 154 156 158 160 162 164 166 168 170 172 174 176 178 180 182 184 186 188 190 192 194 196 198 200 202 204 206 208 210 212 214 216 218 220 222 224 226 228 230 232 234 236 238 240 242 244 246 248 250 252 254 
        </DataArray>
        <DataArray type="Int32" Name="types" format="ascii">
          3 3 3 3 3 3 3 3 3 3 3 3 3 3 3 3 3 3 3 3 3 3 3 3 3 3 3 3 3 3 3 3 3 3 3 3 3 3 3 3 3 3 3 3 3 3 3 3 3 3 3 3 3 3 3 3 3 3 3 3 3 3 3 3 3 3 3 3 3 3 3 3 3 3 3 3 3 3 3 3 3 3 3 3 3 3 3 3 3 3 3 3 3 3 3 3 3 3 3 3 3 3 3 3 3 3 3 3 3 3 3 3 3 3 3 3 3 3 3 3 3 3 3 3 3 3 3         </DataArray>
      </Cells>
    </Piece>
  </UnstructuredGrid>
</VTKFile>
<!-- DATA


-->
