<?xml version="1.0"?>
<VTKFile type="UnstructuredGrid" version="0.1" byte_order="LittleEndian">
  <UnstructuredGrid>
    <Piece NumberOfPoints="128" NumberOfCells="127">
      <PointData Scalars="u">
        <DataArray type="Float32" Name="Y" NumberOfComponents="2">

0 0
0.026614047242817365 -0.0027970473212047481
0.073256578190621285 0.004540659040621807
0.1330942122207269 0.012053695705485999
0.19930838751383706 0.019300353704517801
0.26599522136155573 0.026157802488206993
0.32850621594976748 0.032705028102575903
0.38365639945753771 0.039084391819198976
0.42971542375379135 0.045473804796230546
0.46720468728923453 0.050973767051044221
0.49554466676751824 0.057983728973546589
0.51490528966096738 0.062946272403268527
0.52414322677736291 0.069473656079115667
0.52423403670570135 0.07163153290254691
0.51402224184902079 0.074649427827486584
0.49642661951374745 0.070052422462206165
0.47036953400630888 0.0652596267983164
0.44154813440392954 0.049498375329412564
0.41114436299005014 0.026745005251382611
0.374533018160283 0.0015821224654870376
0.32988540758213641 -0.026544816794121628
0.27371696882329705 -0.037863923423356267
0.22496692836793475 -0.054241168084250627
0.18482580757810677 -0.070606584324500718
0.15608547341636667 -0.085118585171829311
0.13753290990607497 -0.093324291275585586
0.1288234626083587 -0.093316161451233462
0.12973960703152687 -0.083677897108050833
0.13626001918697991 -0.061786722379030649
0.14808694484967003 -0.028550749211569061
0.16037774319482856 0.016609188328232993
0.17185893740158092 0.071639514979448593
0.18153986787737347 0.13489591806418608
0.18547162650354701 0.20520651655129438
0.18485436256747551 0.27977062407843795
0.17623607654732981 0.35691972538982103
0.16194962743938598 0.4341907766883541
0.13920153892471929 0.5102098064609476
0.11120773824925503 0.58378029917442575
0.076796128002572128 0.65466740613168928
0.036385284830655541 0.72217547262848603
-0.0094654135333092151 0.78531278488108214
-0.05999739965001246 0.84284225532184742
-0.11433199321621322 0.89331214828655314
-0.17083926934820165 0.93544688236131679
-0.22822800403621377 0.96796100559999387
-0.28477178073947473 0.98968306187631716
-0.33867746942457466 0.99958257965894715
-0.38771540079270611 0.99727881423477316
-0.43030437188964077 0.98272250134722028
-0.46488285585197059 0.95646409538416699
-0.49043970184841784 0.91953180387396138
-0.50540822558755449 0.87442554466773792
-0.51164826179623257 0.82013632561618488
-0.50555378024858244 0.75815461237056569
-0.48727103040426128 0.68604359965624184
-0.45250727426823545 0.60375964191630183
-0.39995296077199133 0.50735844524624008
-0.32479973055356526 0.39483794184147891
-0.22473466531701858 0.26455896748952379
-0.099210305394974413 0.11620206160105383
0.050925630234361828 -0.052210033268813745
0.22528872203147257 -0.24094992300723672
0.42111338241865232 -0.4509706877173717
0.63549514933199758 -0.68424927004759839
0.86050547220359153 -0.94048082829198243
1.0894120232112678 -1.2156166732702165
1.3138214612218126 -1.5091714926735509
1.5252760131830316 -1.8192746936847326
1.7147481542767224 -2.1428233500777401
1.87263290575603 -2.4748985103975514
1.9958368088781406 -2.8079480728099111
2.0758280163167249 -3.1399754809368967
2.1078695364510773 -3.4647644493867196
2.0884296799167115 -3.7742994956533948
2.0148839128506726 -4.0589522111550194
1.8966678004727773 -4.3074920276205182
1.7319194241168521 -4.5170912771119021
1.5264051007044728 -4.6818811733798418
1.2872819295598854 -4.7963662765836688
1.0219042522860424 -4.855476995630692
0.74050932968372762 -4.8543410570895258
0.4526628531838045 -4.789425079924464
0.17942414024342654 -4.6624254660074804
-0.078219658831683206 -4.479708063403617
-0.31249574514036027 -4.2470678321308286
-0.51502459188987848 -3.9706030261249086
-0.67962934645688244 -3.6565041133754854
-0.80328448136965869 -3.3102925509575996
-0.87402149486327485 -2.9447941810786578
-0.90032707712291415 -2.5694488673054807
-0.88508280594392996 -2.1935992764112386
-0.8305132486232244 -1.8254330576657356
-0.74027031299332013 -1.4711636957426155
-0.61815174355989433 -1.1352901736317178
-0.46763057985517559 -0.82064769516324854
-0.2914491733246718 -0.52853712522756824
-0.091278423324378744 -0.25895604509327835
0.1328459841660036 -0.011217729994216989
0.38155458651433627 0.21729131141343194
0.65806565645846504 0.42866428537427054
0.96618923762092457 0.62501090184956098
1.310109966585209 0.80757390868961576
1.6929148737651842 0.97716095050951335
2.1164696850552991 1.1313649116619935
2.5808209558649589 1.2618542359583831
3.0656622794135244 1.3869339705281305
3.5557287561192723 1.4921726950474443
4.0374607189620839 1.5711922756637293
4.4967539739049309 1.625717924558151
4.9196346984282124 1.6580397104778906
5.2906766520973223 1.6692406092638761
5.5919089453533779 1.6587702474965991
5.8033534580448114 1.6227868688074956
5.9038411123287027 1.5574200251467945
5.8742441704975894 1.4571180070496856
5.7005861161567566 1.316418351865325
5.3784226254700291 1.1355746071905595
4.9180084296444377 0.92309481569858232
4.3491260245391778 0.69487358521642018
3.7167930772569195 0.53015962265247085
3.0639476336635405 0.41380665660989419
2.3981000510012431 0.31611504548338348
1.7213242473687929 0.20791779043886149
1.068378891860301 0.11047666171590537
0.51727771257434896 0.048082772424542321
0.14125777038243045 0.013786531893395335
0 0

        </DataArray>
        <DataArray type="Float32" Name="W" NumberOfComponents="2">

-37.826577003035958 11.971051081285273
-37.825619060975384 11.963235456607507
-37.824742859542006 11.955410285971634
-37.823927401609197 11.94757858226742
-37.823150359068592 11.939742993362943
-37.822388187675202 11.931905951812679
-37.821618079649298 11.924069681038597
-37.820815574616098 11.916236642188576
-37.819955998699719 11.908409625164232
-37.819015848832109 11.900591824421795
-37.817957357078321 11.892789092455113
-37.816756800372261 11.885006858954188
-37.815374988216028 11.877254637528688
-37.813788181910873 11.869541622052584
-37.811956301554474 11.861882937779233
-37.809856311164154 11.854293184223945
-37.807448155923616 11.846795269974058
-37.804710334258154 11.839411072980896
-37.801604331884469 11.832173702148047
-37.798093248245678 11.825123553468433
-37.794162589912837 11.818297978837952
-37.789799708988028 11.811740358528324
-37.785031461666115 11.805471430716636
-37.779882955908249 11.799510972668726
-37.774381714259533 11.793874565438625
-37.768553131211796 11.788577487118792
-37.762424063589386 11.783631303914516
-37.756021050278576 11.779045400666192
-37.749368112642273 11.774830365201113
-37.742490764445876 11.770992489036052
-37.735412179205163 11.767539946467766
-37.728156878397918 11.764476239732097
-37.720748610909261 11.761803679315154
-37.713209488294687 11.759526399095563
-37.705562392213793 11.757643401165403
-37.697828599894564 11.756156247875243
-37.690029723703155 11.755060758574782
-37.682185948499729 11.754355665870383
-37.674317180471306 11.754033455387061
-37.666442062689327 11.754089986872261
-37.658578526799808 11.754519869969714
-37.650743690078428 11.755316499592928
-37.642953751983235 11.756472096177419
-37.635223883436602 11.757977714632082
-37.627567949757378 11.759822601358049
-37.619998638075167 11.761995521127981
-37.61252723031415 11.764484138636083
-37.605163463482796 11.767275041771562
-37.597915116391469 11.770353138014988
-37.59078836282945 11.773702999078035
-37.583787417051298 11.777308256917882
-37.576914511129907 11.781151849359793
-37.570169418904008 11.785215426520027
-37.563554529720143 11.789487553872263
-37.55706633727776 11.793949626343842
-37.55070375733338 11.798588941065411
-37.54445945778361 11.803386163894928
-37.53832947466875 11.808328527060988
-37.532302332879311 11.81339570532249
-37.526363279956719 11.818565769031025
-37.520495598090022 11.823816627144845
-37.514686860116086 11.829132566936778
-37.508915029714792 11.834488522110647
-37.503163043722083 11.83986576900555
-37.497412235872979 11.845244283920417
-37.491629083957939 11.850588040409169
-37.485799475101551 11.855881139291141
-37.479902317355283 11.861098967212286
-37.473916905169013 11.866215441913029
-37.46782355468978 11.871203039969101
-37.461603555258776 11.876031967116324
-37.455248480196531 11.880681918817137
-37.448745302579105 11.885122641661416
-37.442084358068584 11.889323310703798
-37.435259787253131 11.893252889592036
-37.428269318994836 11.896879498394696
-37.421121249242432 11.90018502403249
-37.413821828951541 11.903141743652304
-37.406381490706089 11.905723839023198
-37.398814602027095 11.907907850245426
-37.391138812597355 11.909671801809921
-37.383375371248611 11.91099825105143
-37.375548150920359 11.911873452712491
-37.367683786905005 11.912301895423981
-37.359807790802975 11.912278265130182
-37.351946333208922 11.911799574463846
-37.344125655183142 11.910867816272129
-37.336371472760298 11.909488277143801
-37.328708524381874 11.907669261702628
-37.321155803218709 11.905436570921466
-37.313733311561265 11.902803330533949
-37.306460040885426 11.899782456851851
-37.299352924715791 11.896389249878045
-37.292427398925419 11.892639464632687
-37.285697569762696 11.88854897612546
-37.279176397296183 11.884133550870613
-37.272875863178882 11.879408722939257
-37.266807080578921 11.874389783138415
-37.260980377129727 11.869091797650711
-37.255406506693809 11.863528485652472
-37.250094140131857 11.857714994358199
-37.245050727890302 11.851666733054872
-37.240282178925142 11.845399510147329
-37.235792683108741 11.83892947270437
-37.231582427511682 11.832274346779705
-37.227650721370374 11.825450938598156
-37.223994739214959 11.818475863979996
-37.220609712413143 11.811365623940624
-37.217471179096101 11.804143393666086
-37.214553635131821 11.7968292406008
-37.211832093225098 11.789440018989946
-37.209282605375179 11.78198975817501
-37.206883915833316 11.774489644677061
-37.204618180490449 11.766948349010855
-37.202474868702787 11.759371392276876
-37.200447853342155 11.751762537882891
-37.198541102990532 11.74412269591472
-37.196770108617926 11.736450282745944
-37.195159385947377 11.728742661268196
-37.193740661802288 11.720997427255208
-37.192552573538585 11.713213500490394
-37.191445853063648 11.705417617196348
-37.190398575679055 11.697613546911754
-37.189369608772886 11.689807052009778
-37.188512727703056 11.681979798604093
-37.187803226073754 11.674137804018873
-37.187194737171914 11.666287306913521
-37.186637738986775 11.658432957050621

        </DataArray>
        <DataArray type="Float32" Name="u" NumberOfComponents="1">
          0 0.007874015748031496 0.015748031496062992 0.023622047244094488 0.031496062992125984 0.03937007874015748 0.047244094488188976 0.055118110236220472 0.062992125984251968 0.070866141732283464 0.07874015748031496 0.086614173228346455 0.094488188976377951 0.10236220472440945 0.11023622047244094 0.11811023622047244 0.12598425196850394 0.13385826771653545 0.14173228346456693 0.14960629921259844 0.15748031496062992 0.16535433070866143 0.17322834645669291 0.18110236220472442 0.1889763779527559 0.19685039370078741 0.20472440944881889 0.2125984251968504 0.22047244094488189 0.2283464566929134 0.23622047244094488 0.24409448818897639 0.25196850393700787 0.25984251968503935 0.26771653543307089 0.27559055118110237 0.28346456692913385 0.29133858267716534 0.29921259842519687 0.30708661417322836 0.31496062992125984 0.32283464566929132 0.33070866141732286 0.33858267716535434 0.34645669291338582 0.3543307086614173 0.36220472440944884 0.37007874015748032 0.37795275590551181 0.38582677165354329 0.39370078740157483 0.40157480314960631 0.40944881889763779 0.41732283464566927 0.42519685039370081 0.43307086614173229 0.44094488188976377 0.44881889763779526 0.45669291338582679 0.46456692913385828 0.47244094488188976 0.48031496062992124 0.48818897637795278 0.49606299212598426 0.50393700787401574 0.51181102362204722 0.51968503937007871 0.52755905511811019 0.53543307086614178 0.54330708661417326 0.55118110236220474 0.55905511811023623 0.56692913385826771 0.57480314960629919 0.58267716535433067 0.59055118110236215 0.59842519685039375 0.60629921259842523 0.61417322834645671 0.62204724409448819 0.62992125984251968 0.63779527559055116 0.64566929133858264 0.65354330708661412 0.66141732283464572 0.6692913385826772 0.67716535433070868 0.68503937007874016 0.69291338582677164 0.70078740157480313 0.70866141732283461 0.71653543307086609 0.72440944881889768 0.73228346456692917 0.74015748031496065 0.74803149606299213 0.75590551181102361 0.76377952755905509 0.77165354330708658 0.77952755905511806 0.78740157480314965 0.79527559055118113 0.80314960629921262 0.8110236220472441 0.81889763779527558 0.82677165354330706 0.83464566929133854 0.84251968503937003 0.85039370078740162 0.8582677165354331 0.86614173228346458 0.87401574803149606 0.88188976377952755 0.88976377952755903 0.89763779527559051 0.90551181102362199 0.91338582677165359 0.92125984251968507 0.92913385826771655 0.93700787401574803 0.94488188976377951 0.952755905511811 0.96062992125984248 0.96850393700787396 0.97637795275590555 0.98425196850393704 0.99212598425196852 1
        </DataArray>
      </PointData>
      <CellData Scalars="P">
        <DataArray type="Float32" Name="P" NumberOfComponents="1">
          0.023393834426273255 0.036995444449636566 0.04393267633129478 0.06260637984332211 0.10404837440175965 0.1705815379880721 0.2621230006545397 0.3739857058501877 0.4997763856045559 0.64983860043602193 0.80386199815136195 0.97132378676618503 1.1302582383761552 1.2907915496537878 1.4329540367358804 1.5725673808519873 1.6965015767466618 1.8323834888467641 1.9808368702872465 2.1021130506128247 2.2034245966259074 2.3113310310145163 2.4572360531134732 2.6601267523714234 2.9389309329845505 3.2984507936677283 3.7415639622468344 4.2745200179669487 4.8851459949210865 5.5716422798788487 6.3114893061661919 7.0914698892303853 7.9075675135356382 8.7354161509505257 9.5728903040378732 10.395758564990599 11.206617330264912 11.985992187054762 12.744791306839614 13.481734408643549 14.193301815336534 14.874102829141181 15.517130300801211 16.113109599398559 16.656065125920914 17.138677406992116 17.55413859338077 17.896346229354712 18.164511748425323 18.359808737421368 18.486965956260256 18.554060424491343 18.572715748949509 18.543428343929936 18.467772045279816 18.347577169489167 18.178560655190232 17.971836333962244 17.745895804861807 17.528117529746414 17.323563395072409 17.203758784828562 17.171948489383613 17.266013867364336 17.63537589689874 18.150439483595729 18.886811524785035 19.854089591731945 21.047725788028952 22.453682590299294 23.946566521392075 25.56603123790148 27.264416333302787 28.982981288976152 30.658647169041465 32.153015730054044 33.482086751859327 34.604955650346817 35.485118680019269 36.092283773249441 36.39141195832228 36.354472758459934 35.973630626277668 35.279481025135048 34.302576543582028 33.074292768885783 31.621976355815349 29.969758774512634 28.206359390250956 26.340508665701524 24.419450701272076 22.491109479815862 20.586186171419278 18.725255619375233 16.919015881012481 15.168736535655448 13.46700175255331 11.798336269503976 10.13217390923556 8.4450090376833238 6.7036044844972045 4.8772348484675332 2.9416400005611156 0.90033637538198863 -1.2428790381379247 -3.4510515063297751 -5.5078955406775814 -7.3333415842911593 -8.8856719930253227 -10.151119985963263 -11.126862578153048 -11.823617208456204 -12.256577720813231 -12.448353884390727 -12.397929822048916 -12.076462981713213 -11.391063888116962 -10.209403770382323 -8.4129552638342204 -5.958805695289672 -5.1173066302216901 -4.5147100946507743 -4.3729624377248326 -2.4722011889487994 -1.0133532481420522 -0.25231274073305371 -0.024265757625613362
        </DataArray>
      </CellData>
      <Points>
        <DataArray type="Float32" NumberOfComponents="3" format="ascii">
          -37.826577003035958 11.971051081285273 0
          -37.825619060975384 11.963235456607507 0
          -37.824742859542006 11.955410285971634 0
          -37.823927401609197 11.94757858226742 0
          -37.823150359068592 11.939742993362943 0
          -37.822388187675202 11.931905951812679 0
          -37.821618079649298 11.924069681038597 0
          -37.820815574616098 11.916236642188576 0
          -37.819955998699719 11.908409625164232 0
          -37.819015848832109 11.900591824421795 0
          -37.817957357078321 11.892789092455113 0
          -37.816756800372261 11.885006858954188 0
          -37.815374988216028 11.877254637528688 0
          -37.813788181910873 11.869541622052584 0
          -37.811956301554474 11.861882937779233 0
          -37.809856311164154 11.854293184223945 0
          -37.807448155923616 11.846795269974058 0
          -37.804710334258154 11.839411072980896 0
          -37.801604331884469 11.832173702148047 0
          -37.798093248245678 11.825123553468433 0
          -37.794162589912837 11.818297978837952 0
          -37.789799708988028 11.811740358528324 0
          -37.785031461666115 11.805471430716636 0
          -37.779882955908249 11.799510972668726 0
          -37.774381714259533 11.793874565438625 0
          -37.768553131211796 11.788577487118792 0
          -37.762424063589386 11.783631303914516 0
          -37.756021050278576 11.779045400666192 0
          -37.749368112642273 11.774830365201113 0
          -37.742490764445876 11.770992489036052 0
          -37.735412179205163 11.767539946467766 0
          -37.728156878397918 11.764476239732097 0
          -37.720748610909261 11.761803679315154 0
          -37.713209488294687 11.759526399095563 0
          -37.705562392213793 11.757643401165403 0
          -37.697828599894564 11.756156247875243 0
          -37.690029723703155 11.755060758574782 0
          -37.682185948499729 11.754355665870383 0
          -37.674317180471306 11.754033455387061 0
          -37.666442062689327 11.754089986872261 0
          -37.658578526799808 11.754519869969714 0
          -37.650743690078428 11.755316499592928 0
          -37.642953751983235 11.756472096177419 0
          -37.635223883436602 11.757977714632082 0
          -37.627567949757378 11.759822601358049 0
          -37.619998638075167 11.761995521127981 0
          -37.61252723031415 11.764484138636083 0
          -37.605163463482796 11.767275041771562 0
          -37.597915116391469 11.770353138014988 0
          -37.59078836282945 11.773702999078035 0
          -37.583787417051298 11.777308256917882 0
          -37.576914511129907 11.781151849359793 0
          -37.570169418904008 11.785215426520027 0
          -37.563554529720143 11.789487553872263 0
          -37.55706633727776 11.793949626343842 0
          -37.55070375733338 11.798588941065411 0
          -37.54445945778361 11.803386163894928 0
          -37.53832947466875 11.808328527060988 0
          -37.532302332879311 11.81339570532249 0
          -37.526363279956719 11.818565769031025 0
          -37.520495598090022 11.823816627144845 0
          -37.514686860116086 11.829132566936778 0
          -37.508915029714792 11.834488522110647 0
          -37.503163043722083 11.83986576900555 0
          -37.497412235872979 11.845244283920417 0
          -37.491629083957939 11.850588040409169 0
          -37.485799475101551 11.855881139291141 0
          -37.479902317355283 11.861098967212286 0
          -37.473916905169013 11.866215441913029 0
          -37.46782355468978 11.871203039969101 0
          -37.461603555258776 11.876031967116324 0
          -37.455248480196531 11.880681918817137 0
          -37.448745302579105 11.885122641661416 0
          -37.442084358068584 11.889323310703798 0
          -37.435259787253131 11.893252889592036 0
          -37.428269318994836 11.896879498394696 0
          -37.421121249242432 11.90018502403249 0
          -37.413821828951541 11.903141743652304 0
          -37.406381490706089 11.905723839023198 0
          -37.398814602027095 11.907907850245426 0
          -37.391138812597355 11.909671801809921 0
          -37.383375371248611 11.91099825105143 0
          -37.375548150920359 11.911873452712491 0
          -37.367683786905005 11.912301895423981 0
          -37.359807790802975 11.912278265130182 0
          -37.351946333208922 11.911799574463846 0
          -37.344125655183142 11.910867816272129 0
          -37.336371472760298 11.909488277143801 0
          -37.328708524381874 11.907669261702628 0
          -37.321155803218709 11.905436570921466 0
          -37.313733311561265 11.902803330533949 0
          -37.306460040885426 11.899782456851851 0
          -37.299352924715791 11.896389249878045 0
          -37.292427398925419 11.892639464632687 0
          -37.285697569762696 11.88854897612546 0
          -37.279176397296183 11.884133550870613 0
          -37.272875863178882 11.879408722939257 0
          -37.266807080578921 11.874389783138415 0
          -37.260980377129727 11.869091797650711 0
          -37.255406506693809 11.863528485652472 0
          -37.250094140131857 11.857714994358199 0
          -37.245050727890302 11.851666733054872 0
          -37.240282178925142 11.845399510147329 0
          -37.235792683108741 11.83892947270437 0
          -37.231582427511682 11.832274346779705 0
          -37.227650721370374 11.825450938598156 0
          -37.223994739214959 11.818475863979996 0
          -37.220609712413143 11.811365623940624 0
          -37.217471179096101 11.804143393666086 0
          -37.214553635131821 11.7968292406008 0
          -37.211832093225098 11.789440018989946 0
          -37.209282605375179 11.78198975817501 0
          -37.206883915833316 11.774489644677061 0
          -37.204618180490449 11.766948349010855 0
          -37.202474868702787 11.759371392276876 0
          -37.200447853342155 11.751762537882891 0
          -37.198541102990532 11.74412269591472 0
          -37.196770108617926 11.736450282745944 0
          -37.195159385947377 11.728742661268196 0
          -37.193740661802288 11.720997427255208 0
          -37.192552573538585 11.713213500490394 0
          -37.191445853063648 11.705417617196348 0
          -37.190398575679055 11.697613546911754 0
          -37.189369608772886 11.689807052009778 0
          -37.188512727703056 11.681979798604093 0
          -37.187803226073754 11.674137804018873 0
          -37.187194737171914 11.666287306913521 0
          -37.186637738986775 11.658432957050621 0
        </DataArray>
      </Points>
      <Cells>
        <DataArray type="Int32" Name="connectivity" format="ascii">
          0 1 1 2 2 3 3 4 4 5 5 6 6 7 7 8 8 9 9 10 10 11 11 12 12 13 13 14 14 15 15 16 16 17 17 18 18 19 19 20 20 21 21 22 22 23 23 24 24 25 25 26 26 27 27 28 28 29 29 30 30 31 31 32 32 33 33 34 34 35 35 36 36 37 37 38 38 39 39 40 40 41 41 42 42 43 43 44 44 45 45 46 46 47 47 48 48 49 49 50 50 51 51 52 52 53 53 54 54 55 55 56 56 57 57 58 58 59 59 60 60 61 61 62 62 63 63 64 64 65 65 66 66 67 67 68 68 69 69 70 70 71 71 72 72 73 73 74 74 75 75 76 76 77 77 78 78 79 79 80 80 81 81 82 82 83 83 84 84 85 85 86 86 87 87 88 88 89 89 90 90 91 91 92 92 93 93 94 94 95 95 96 96 97 97 98 98 99 99 100 100 101 101 102 102 103 103 104 104 105 105 106 106 107 107 108 108 109 109 110 110 111 111 112 112 113 113 114 114 115 115 116 116 117 117 118 118 119 119 120 120 121 121 122 122 123 123 124 124 125 125 126 126 127 
        </DataArray>
        <DataArray type="Int32" Name="offsets" format="ascii">
          2 4 6 8 10 12 14 16 18 20 22 24 26 28 30 32 34 36 38 40 42 44 46 48 50 52 54 56 58 60 62 64 66 68 70 72 74 76 78 80 82 84 86 88 90 92 94 96 98 100 102 104 106 108 110 112 114 116 118 120 122 124 126 128 130 132 134 136 138 140 142 144 146 148 150 152 154 156 158 160 162 164 166 168 170 172 174 176 178 180 182 184 186 188 190 192 194 196 198 200 202 204 206 208 210 212 214 216 218 220 222 224 226 228 230 232 234 236 238 240 242 244 246 248 250 252 254 
        </DataArray>
        <DataArray type="Int32" Name="types" format="ascii">
          3 3 3 3 3 3 3 3 3 3 3 3 3 3 3 3 3 3 3 3 3 3 3 3 3 3 3 3 3 3 3 3 3 3 3 3 3 3 3 3 3 3 3 3 3 3 3 3 3 3 3 3 3 3 3 3 3 3 3 3 3 3 3 3 3 3 3 3 3 3 3 3 3 3 3 3 3 3 3 3 3 3 3 3 3 3 3 3 3 3 3 3 3 3 3 3 3 3 3 3 3 3 3 3 3 3 3 3 3 3 3 3 3 3 3 3 3 3 3 3 3 3 3 3 3 3 3         </DataArray>
      </Cells>
    </Piece>
  </UnstructuredGrid>
</VTKFile>
<!-- DATA


-->
