<?xml version="1.0"?>
<VTKFile type="UnstructuredGrid" version="0.1" byte_order="LittleEndian">
  <UnstructuredGrid>
    <Piece NumberOfPoints="128" NumberOfCells="127">
      <PointData Scalars="u">
        <DataArray type="Float32" Name="Y" NumberOfComponents="2">

0 0
0.041549656839039356 -0.0078124667599394695
0.037950107498207597 0.0094811121005030329
0.031827202749410914 0.040749664550993311
0.021429159585435509 0.08148205432705731
0.0063267429888180845 0.12755741799480136
-0.012883512383177136 0.17544218468359307
-0.034889496087730988 0.22228459330412059
-0.057959128047745209 0.26591855880111037
-0.080201095086226276 0.30479669813395743
-0.099779326099936089 0.33787652815799707
-0.11507812207156115 0.36448449768734675
-0.12482126572458926 0.38418038279070488
-0.12815221861602427 0.39664066225380235
-0.12468352932030877 0.40157473914165781
-0.11452216796389246 0.39868295070693582
-0.098274346226718975 0.38766052483302654
-0.077029352462757217 0.36824699584888726
-0.052317998159498898 0.3403159059328395
-0.026038418163299042 0.30399472028850338
-0.00034111346773462407 0.25979981103335265
0.022532989287627151 0.20876651920599293
0.040462668509029465 0.15255052611145578
0.051697942216395398 0.093475266862410242
0.05513614950087551 0.03450225192825801
0.050595295443409967 -0.020891976701493311
0.039049004211599674 -0.068936588635730017
0.022783802227952805 -0.10587306655218033
0.0054428699193772795 -0.12831767452750734
-0.008068066650911896 -0.13363316919463092
-0.011818221296683329 -0.12025207266871217
0.0007849407947991522 -0.087891896914760612
0.036546617943287431 -0.037611776968924746
0.10200624076052314 0.028320643846752144
0.20299158149751689 0.10675690389570069
0.34425927276882867 0.19416684831684222
0.52925466782471176 0.28726215546249739
0.75999376901882643 0.38368170955656195
1.0370363008060106 0.48267052014121092
1.3594885002985175 0.58568582971869265
1.7249529417501226 0.69686859708694648
2.1293357442512204 0.82331916587198362
2.566433163562345 0.97510691155272733
3.0272543696637007 1.1649228185269933
3.4991004855333956 1.4072555561035955
3.9645167125307159 1.7169493667723761
4.40036491952395 2.107010955620908
4.7774155374550666 2.585607676043888
5.0609923561953014 3.1523774787225882
5.2132505917631624 3.7944710662830872
5.1975276689203005 4.4831372256316211
5.0682693515239219 5.0848088104919338
4.9150417493043266 5.5325685555073347
4.658816427624803 5.9096840689704111
4.3183080267800626 6.2023313951045207
3.9141693851676056 6.3999817230975991
3.4679690223420865 6.4961035014559956
3.0010408647756552 6.4884450537510912
2.533352243709253 6.3789110457926528
2.0825188585134464 6.173093597812894
1.6630603492620857 5.8795539047848777
1.2859460403509253 5.5089672535931538
0.95843657128687088 5.0732425807554646
0.68419105562154103 4.5847106133259246
0.46358551125802694 4.0554480130706096
0.2941775995504568 3.4967751322387652
0.17125347831047422 2.9189372915856668
0.088401485877716346 2.3309573602051841
0.038070643767244512 1.7406323291071044
0.01208622288139225 1.1546383978069763
0.0021073929955388836 0.5787066953020753
2.1826372797694571e-05 0.017833572815324605
-0.0017214662647178187 -0.52350609579368312
-0.0098366567111591325 -1.0411682282581292
-0.02997809748143352 -1.5311905564132144
-0.06656627602483968 -1.9896978420124214
-0.12266148936596974 -2.4128673427839047
-0.19988636755468137 -2.7969544768910719
-0.29840010226084168 -3.1383729725423377
-0.41692780564746429 -3.4338187665858504
-0.55284755518527773 -3.6804228104757328
-0.70233535944306058 -3.8759150955713446
-0.86056476810575999 -4.0187809598708171
-1.0219536422071702 -4.1083913292477812
-1.1804463558592322 -4.1450910411978876
-1.32981612652183 -4.1302336204278776
-1.4639699007906972 -4.0661563924058184
-1.5772376907510635 -3.9560959950660606
-1.6646296169609174 -3.8040504289641355
-1.7220470085043245 -3.6145990342769458
-1.7464383011815925 -3.3926955986970793
-1.7358955337221553 -3.1434518163305478
-1.6896922697564545 -2.8719284455211525
-1.6082681267786632 -2.5829499289645508
-1.4931682844692047 -2.2809553213004392
-1.3469481051804701 -1.9698946048238977
-1.1730532928090107 -1.6531753609643098
-0.97568501528544982 -1.3336607279467136
-0.75965744741839591 -1.013715913061956
-0.53025267430280754 -0.69529739927737677
-0.2930752799259923 -0.38007642642363093
-0.053906660296840866 -0.069586292210973039
0.18144248575568514 0.23461856081223825
0.40728364212452223 0.53080486845861685
0.61820755687295348 0.81691818487806345
0.8092468423376129 1.0904698783203481
0.97604130756515128 1.3484668666995439
1.1149998534669288 1.5873957896763256
1.2234492335587526 1.8032703874722948
1.2997569985184514 1.9917466188834012
1.3434142687834882 2.1483046553936123
1.3550643369416515 2.2684907737070126
1.3364660043179197 2.3482060543874379
1.2903861470584876 2.3840235879886489
1.2204239379411552 2.3735125136195667
1.1307785483572801 2.3155463711569135
1.025981704511995 2.2105751935502558
0.91062460169112558 2.0608451621214545
0.78911381804338121 1.870555563029102
0.66549168854122254 1.6459488734181105
0.54335220003531226 1.3953346643183782
0.42587345079123684 1.1290506071920019
0.31597218212298955 0.85936398773641687
0.21656541851340694 0.60031560786235438
0.1308999657733238 0.36750667808818777
0.062884225371513031 0.17783075414480765
0.017331172334604728 0.049159137760326967
0 0

        </DataArray>
        <DataArray type="Float32" Name="W" NumberOfComponents="2">

-0.87415757809358274 0.3235978052908085
-0.86636744739914373 0.32245083020435789
-0.85851754669648861 0.32183390484756419
-0.85064429497498906 0.32171866457043102
-0.84277809117307534 0.32207085165059168
-0.83494277694335028 0.32285115239339424
-0.82715536399109069 0.32401607273154848
-0.81942603709355466 0.32551879511809662
-0.81175842869856873 0.32730996597894374
-0.80415014812073704 0.32933837440548763
-0.7965935386259011 0.33155149779873477
-0.7890766293234226 0.33389590720615137
-0.781584245376307 0.33631754242683937
-0.77409923872745934 0.33876188300819138
-0.76660380120400073 0.34117405464841671
-0.75908082136555322 0.34349892015836936
-0.75151524489915311 0.34568120920269052
-0.74389539525069093 0.34766574097049519
-0.73621420659329484 0.34939778840298197
-0.7284703158402569 0.35082362158400027
-0.72066895544095766 0.35189125167115881
-0.71282258579243996 0.35255137603431419
-0.70495120708002224 0.35275850133362369
-0.69708229693266199 0.35247219596621043
-0.68925033368408772 0.3516583990735469
-0.68149588570179842 0.35029069300701826
-0.67386427452232678 0.34835143283531594
-0.66640385150340986 0.34583262293295003
-0.65916396125527554 0.342736438952358
-0.65219269620496823 0.33907531433573024
-0.6455345708524548 0.33487154310009531
-0.63922825751146939 0.3301563922528527
-0.63330452466143072 0.32496876354545828
-0.62778450341189684 0.31935348992297324
-0.62267837825766126 0.31335939128096446
-0.61798455888049386 0.30703724202368704
-0.61368934571863443 0.30043781608456765
-0.60976705988647439 0.29361017240162307
-0.60618057422535099 0.28660032653776718
-0.60288216209878864 0.27945042526800573
-0.59981457732842114 0.27219850454653516
-0.59691229326916495 0.26487887114164366
-0.59410285975439625 0.25752310690211294
-0.59130837935937408 0.25016165253813455
-0.58844715264986425 0.24282588316756071
-0.58543558695852516 0.23555053731472914
-0.58219049344981821 0.22837630121538238
-0.57863189918366786 0.22135228052711914
-0.57468645987015032 0.21453801735272665
-0.5702914624861517 0.20800464690998838
-0.56539925058135909 0.20183476158762481
-0.55998170126799407 0.1961205955580903
-0.55424990877634861 0.19072169320563423
-0.54821337404202219 0.18566581757773712
-0.54188798440545061 0.18097635159866649
-0.53529485321947878 0.17667144082585687
-0.52845903924158899 0.1727633405432209
-0.52140820922342945 0.16925801073695654
-0.51417131503544466 0.16615497648189695
-0.50677735553159564 0.16344744607609071
-0.4992542842436325 0.16112265784156626
-0.49162810907047538 0.15916241103580905
-0.48392221213066089 0.1575437278474843
-0.47615689959445401 0.15623959187288267
-0.46834917484481109 0.15521971272531687
-0.46051271521502168 0.15445127486654991
-0.45265802347920364 0.15389963951794233
-0.44479272018182497 0.1535289798913701
-0.43692194123090439 0.15330284060356913
-0.42904880612312868 0.15318462106689726
-0.42117492483338059 0.15313798937800288
-0.41330091499376792 0.15312723760512748
-0.40542690489726485 0.15311759151760945
-0.39755300169127217 0.1530754879867311
-0.38967970768263582 0.15296883188391408
-0.38180827092899888 0.15276724171530293
-0.37394095932617272 0.1524422898707562
-0.3660812503593609 0.15196773962876614
-0.35823393171425483 0.15131977732560131
-0.35040511114946471 0.15047723471804658
-0.34260213744979495 0.1494217938559646
-0.33483343785661607 0.14813816498810489
-0.32710828096312738 0.14661422732868226
-0.3194364774508382 0.14484112299076646
-0.31182803396817838 0.1428132960088522
-0.30429277764948559 0.14052847097240845
-0.2968399700210112 0.1379875691129577
-0.28947792919920429 0.13519456338717623
-0.28221367832236988 0.13215627779472983
-0.27505263615424025 0.12888213948498217
-0.26799836294896223 0.12538389481585852
-0.26105237124379438 0.12167530219438226
-0.25421400756217416 0.11777181512671166
-0.24748040737758531 0.11369026842798947
-0.24084652237781631 0.10944857908727626
-0.23430521627764606 0.10506547103127224
-0.22784742326487917 0.1005602302159232
-0.22146236164815014 0.095952493352427823
-0.21513779434291674 0.091262070393974271
-0.2088603273624684 0.086508797898805445
-0.20261573731750387 0.081712417737930684
-0.19638931890866657 0.076892473490646179
-0.19016624337963825 0.072068215394148774
-0.18393191878561338 0.067258503982813966
-0.17767234268554552 0.062481702640195688
-0.17137443751961753 0.057755550236537584
-0.16502635859114137 0.053097006844760077
-0.15861776440253372 0.048522068177901216
-0.15214003930792722 0.044045547766228384
-0.14558645925910405 0.039680829811263869
-0.13895229302186374 0.035439599854034165
-0.1322348337304754 0.031331564541423391
-0.12543335900637712 0.027364175488461758
-0.11854902191381259 0.02354237513657377
-0.11158467941299681 0.019868384275429415
-0.10454466920894032 0.016341551319722088
-0.097434549398505987 0.012958282459612856
-0.09026081749751716 0.0097120695553421579
-0.083030625779688894 0.0065936293952131653
-0.075751508061265044 0.0035911640485744075
-0.068431129068707588 0.0006907478992112156
-0.061077061604396111 -0.0021231571590396435
-0.053696589498159419 -0.0048670607823929016
-0.04629652676382727 -0.0075576835995404979
-0.038883036739104808 -0.010211086674982266
-0.031461430779744878 -0.012841704226418088
-0.024035925935312154 -0.0154612962165435
-0.016609346541672159 -0.018077840324695671

        </DataArray>
        <DataArray type="Float32" Name="u" NumberOfComponents="1">
          0 0.007874015748031496 0.015748031496062992 0.023622047244094488 0.031496062992125984 0.03937007874015748 0.047244094488188976 0.055118110236220472 0.062992125984251968 0.070866141732283464 0.07874015748031496 0.086614173228346455 0.094488188976377951 0.10236220472440945 0.11023622047244094 0.11811023622047244 0.12598425196850394 0.13385826771653545 0.14173228346456693 0.14960629921259844 0.15748031496062992 0.16535433070866143 0.17322834645669291 0.18110236220472442 0.1889763779527559 0.19685039370078741 0.20472440944881889 0.2125984251968504 0.22047244094488189 0.2283464566929134 0.23622047244094488 0.24409448818897639 0.25196850393700787 0.25984251968503935 0.26771653543307089 0.27559055118110237 0.28346456692913385 0.29133858267716534 0.29921259842519687 0.30708661417322836 0.31496062992125984 0.32283464566929132 0.33070866141732286 0.33858267716535434 0.34645669291338582 0.3543307086614173 0.36220472440944884 0.37007874015748032 0.37795275590551181 0.38582677165354329 0.39370078740157483 0.40157480314960631 0.40944881889763779 0.41732283464566927 0.42519685039370081 0.43307086614173229 0.44094488188976377 0.44881889763779526 0.45669291338582679 0.46456692913385828 0.47244094488188976 0.48031496062992124 0.48818897637795278 0.49606299212598426 0.50393700787401574 0.51181102362204722 0.51968503937007871 0.52755905511811019 0.53543307086614178 0.54330708661417326 0.55118110236220474 0.55905511811023623 0.56692913385826771 0.57480314960629919 0.58267716535433067 0.59055118110236215 0.59842519685039375 0.60629921259842523 0.61417322834645671 0.62204724409448819 0.62992125984251968 0.63779527559055116 0.64566929133858264 0.65354330708661412 0.66141732283464572 0.6692913385826772 0.67716535433070868 0.68503937007874016 0.69291338582677164 0.70078740157480313 0.70866141732283461 0.71653543307086609 0.72440944881889768 0.73228346456692917 0.74015748031496065 0.74803149606299213 0.75590551181102361 0.76377952755905509 0.77165354330708658 0.77952755905511806 0.78740157480314965 0.79527559055118113 0.80314960629921262 0.8110236220472441 0.81889763779527558 0.82677165354330706 0.83464566929133854 0.84251968503937003 0.85039370078740162 0.8582677165354331 0.86614173228346458 0.87401574803149606 0.88188976377952755 0.88976377952755903 0.89763779527559051 0.90551181102362199 0.91338582677165359 0.92125984251968507 0.92913385826771655 0.93700787401574803 0.94488188976377951 0.952755905511811 0.96062992125984248 0.96850393700787396 0.97637795275590555 0.98425196850393704 0.99212598425196852 1
        </DataArray>
      </PointData>
      <CellData Scalars="P">
        <DataArray type="Float32" Name="P" NumberOfComponents="1">
          0.004948487436987014 0.19253325291557924 0.49694262007090323 0.86506816522720487 1.2525883882648754 1.6245856811421422 1.9557188455437187 2.229960833899169 2.4399523236936527 2.5860495211168715 2.6751572974954767 2.7194370157303189 2.7349649975954944 2.7403967568282575 2.7556687241688977 2.8007478937545969 2.8944245279652252 3.0531365136382811 3.2898175362316522 3.612774834769561 4.0246243307585221 4.5213383450915439 5.0914895632960659 5.7157990032430925 6.3671096468978758 7.0109056747333236 7.6064759206905856 8.1087779229110826 8.4709980663669189 8.6477301036220933 8.5986186468548969 8.2922478962416406 7.7100102535059927 6.8496724151180981 5.7283696597798111 4.3847961018486332 2.8804058039190847 1.2994776689272474 -0.25209419848847708 -1.6494589858799402 -2.7531762294030373 -3.4156731179893631 -3.4902960931349689 -2.8435189675182917 -1.3707693057252681 0.9840419505104544 4.2059732231528155 8.185405359477274 12.696844434124802 17.385461448853398 21.767904994526081 23.816081024178605 25.201534223092157 25.900543965917404 25.921488450882361 25.302323584702098 24.106764320614854 22.41929778789704 20.339372497137106 17.975223014654269 15.437809587093904 12.835294875450362 10.268371493809262 7.8266232553376982 5.5859754817844722 3.6071838835414849 1.9352372579434536 0.59950861620948825 -0.38552147250324648 -1.0191337216787977 -1.312969445239295 -1.2894660859682128 -0.98020208869150149 -0.42419619794949992 0.33381448683667253 1.2451056513668937 2.258698044707629 3.3230797233998892 4.3878988027558732 5.4055962101651662 6.3329367356836386 7.1323878265621508 7.7732911684137287 8.2327735359859151 8.496351176913798 8.5581956171162012 8.4210468296501464 8.0957800786404963 7.6006529833404439 6.9602770617147005 6.2043712853906605 5.3663628385249948 4.4819020488810555 3.5873549511599814 2.7183294594837726 1.9082814169049187 1.1872367370030297 0.58065717248217608 0.10847124414768099 -0.2157107412483755 -0.38517783419494089 -0.40047243744340816 -0.26948891886266291 -0.0072842686784826503 0.36443317819662813 0.8181669313640364 1.3218657780146212 1.8405249639501804 2.3381222484233302 2.7798172737556781 3.1342988199264075 3.3761204362987316 3.4878271050358376 3.4616511530976513 3.3005514487741672 3.0183914968062999 2.6391027063207124 2.1947596059466665 1.7226024139143583 1.2611753613894725 0.84590094790419124 0.50457318726633971 0.25341577814468824 0.094497348708659487 0.015401025154377341 -0.0079236192518392385 -0.0042814774041124532
        </DataArray>
      </CellData>
      <Points>
        <DataArray type="Float32" NumberOfComponents="3" format="ascii">
          -0.87415757809358274 0.3235978052908085 0
          -0.86636744739914373 0.32245083020435789 0
          -0.85851754669648861 0.32183390484756419 0
          -0.85064429497498906 0.32171866457043102 0
          -0.84277809117307534 0.32207085165059168 0
          -0.83494277694335028 0.32285115239339424 0
          -0.82715536399109069 0.32401607273154848 0
          -0.81942603709355466 0.32551879511809662 0
          -0.81175842869856873 0.32730996597894374 0
          -0.80415014812073704 0.32933837440548763 0
          -0.7965935386259011 0.33155149779873477 0
          -0.7890766293234226 0.33389590720615137 0
          -0.781584245376307 0.33631754242683937 0
          -0.77409923872745934 0.33876188300819138 0
          -0.76660380120400073 0.34117405464841671 0
          -0.75908082136555322 0.34349892015836936 0
          -0.75151524489915311 0.34568120920269052 0
          -0.74389539525069093 0.34766574097049519 0
          -0.73621420659329484 0.34939778840298197 0
          -0.7284703158402569 0.35082362158400027 0
          -0.72066895544095766 0.35189125167115881 0
          -0.71282258579243996 0.35255137603431419 0
          -0.70495120708002224 0.35275850133362369 0
          -0.69708229693266199 0.35247219596621043 0
          -0.68925033368408772 0.3516583990735469 0
          -0.68149588570179842 0.35029069300701826 0
          -0.67386427452232678 0.34835143283531594 0
          -0.66640385150340986 0.34583262293295003 0
          -0.65916396125527554 0.342736438952358 0
          -0.65219269620496823 0.33907531433573024 0
          -0.6455345708524548 0.33487154310009531 0
          -0.63922825751146939 0.3301563922528527 0
          -0.63330452466143072 0.32496876354545828 0
          -0.62778450341189684 0.31935348992297324 0
          -0.62267837825766126 0.31335939128096446 0
          -0.61798455888049386 0.30703724202368704 0
          -0.61368934571863443 0.30043781608456765 0
          -0.60976705988647439 0.29361017240162307 0
          -0.60618057422535099 0.28660032653776718 0
          -0.60288216209878864 0.27945042526800573 0
          -0.59981457732842114 0.27219850454653516 0
          -0.59691229326916495 0.26487887114164366 0
          -0.59410285975439625 0.25752310690211294 0
          -0.59130837935937408 0.25016165253813455 0
          -0.58844715264986425 0.24282588316756071 0
          -0.58543558695852516 0.23555053731472914 0
          -0.58219049344981821 0.22837630121538238 0
          -0.57863189918366786 0.22135228052711914 0
          -0.57468645987015032 0.21453801735272665 0
          -0.5702914624861517 0.20800464690998838 0
          -0.56539925058135909 0.20183476158762481 0
          -0.55998170126799407 0.1961205955580903 0
          -0.55424990877634861 0.19072169320563423 0
          -0.54821337404202219 0.18566581757773712 0
          -0.54188798440545061 0.18097635159866649 0
          -0.53529485321947878 0.17667144082585687 0
          -0.52845903924158899 0.1727633405432209 0
          -0.52140820922342945 0.16925801073695654 0
          -0.51417131503544466 0.16615497648189695 0
          -0.50677735553159564 0.16344744607609071 0
          -0.4992542842436325 0.16112265784156626 0
          -0.49162810907047538 0.15916241103580905 0
          -0.48392221213066089 0.1575437278474843 0
          -0.47615689959445401 0.15623959187288267 0
          -0.46834917484481109 0.15521971272531687 0
          -0.46051271521502168 0.15445127486654991 0
          -0.45265802347920364 0.15389963951794233 0
          -0.44479272018182497 0.1535289798913701 0
          -0.43692194123090439 0.15330284060356913 0
          -0.42904880612312868 0.15318462106689726 0
          -0.42117492483338059 0.15313798937800288 0
          -0.41330091499376792 0.15312723760512748 0
          -0.40542690489726485 0.15311759151760945 0
          -0.39755300169127217 0.1530754879867311 0
          -0.38967970768263582 0.15296883188391408 0
          -0.38180827092899888 0.15276724171530293 0
          -0.37394095932617272 0.1524422898707562 0
          -0.3660812503593609 0.15196773962876614 0
          -0.35823393171425483 0.15131977732560131 0
          -0.35040511114946471 0.15047723471804658 0
          -0.34260213744979495 0.1494217938559646 0
          -0.33483343785661607 0.14813816498810489 0
          -0.32710828096312738 0.14661422732868226 0
          -0.3194364774508382 0.14484112299076646 0
          -0.31182803396817838 0.1428132960088522 0
          -0.30429277764948559 0.14052847097240845 0
          -0.2968399700210112 0.1379875691129577 0
          -0.28947792919920429 0.13519456338717623 0
          -0.28221367832236988 0.13215627779472983 0
          -0.27505263615424025 0.12888213948498217 0
          -0.26799836294896223 0.12538389481585852 0
          -0.26105237124379438 0.12167530219438226 0
          -0.25421400756217416 0.11777181512671166 0
          -0.24748040737758531 0.11369026842798947 0
          -0.24084652237781631 0.10944857908727626 0
          -0.23430521627764606 0.10506547103127224 0
          -0.22784742326487917 0.1005602302159232 0
          -0.22146236164815014 0.095952493352427823 0
          -0.21513779434291674 0.091262070393974271 0
          -0.2088603273624684 0.086508797898805445 0
          -0.20261573731750387 0.081712417737930684 0
          -0.19638931890866657 0.076892473490646179 0
          -0.19016624337963825 0.072068215394148774 0
          -0.18393191878561338 0.067258503982813966 0
          -0.17767234268554552 0.062481702640195688 0
          -0.17137443751961753 0.057755550236537584 0
          -0.16502635859114137 0.053097006844760077 0
          -0.15861776440253372 0.048522068177901216 0
          -0.15214003930792722 0.044045547766228384 0
          -0.14558645925910405 0.039680829811263869 0
          -0.13895229302186374 0.035439599854034165 0
          -0.1322348337304754 0.031331564541423391 0
          -0.12543335900637712 0.027364175488461758 0
          -0.11854902191381259 0.02354237513657377 0
          -0.11158467941299681 0.019868384275429415 0
          -0.10454466920894032 0.016341551319722088 0
          -0.097434549398505987 0.012958282459612856 0
          -0.09026081749751716 0.0097120695553421579 0
          -0.083030625779688894 0.0065936293952131653 0
          -0.075751508061265044 0.0035911640485744075 0
          -0.068431129068707588 0.0006907478992112156 0
          -0.061077061604396111 -0.0021231571590396435 0
          -0.053696589498159419 -0.0048670607823929016 0
          -0.04629652676382727 -0.0075576835995404979 0
          -0.038883036739104808 -0.010211086674982266 0
          -0.031461430779744878 -0.012841704226418088 0
          -0.024035925935312154 -0.0154612962165435 0
          -0.016609346541672159 -0.018077840324695671 0
        </DataArray>
      </Points>
      <Cells>
        <DataArray type="Int32" Name="connectivity" format="ascii">
          0 1 1 2 2 3 3 4 4 5 5 6 6 7 7 8 8 9 9 10 10 11 11 12 12 13 13 14 14 15 15 16 16 17 17 18 18 19 19 20 20 21 21 22 22 23 23 24 24 25 25 26 26 27 27 28 28 29 29 30 30 31 31 32 32 33 33 34 34 35 35 36 36 37 37 38 38 39 39 40 40 41 41 42 42 43 43 44 44 45 45 46 46 47 47 48 48 49 49 50 50 51 51 52 52 53 53 54 54 55 55 56 56 57 57 58 58 59 59 60 60 61 61 62 62 63 63 64 64 65 65 66 66 67 67 68 68 69 69 70 70 71 71 72 72 73 73 74 74 75 75 76 76 77 77 78 78 79 79 80 80 81 81 82 82 83 83 84 84 85 85 86 86 87 87 88 88 89 89 90 90 91 91 92 92 93 93 94 94 95 95 96 96 97 97 98 98 99 99 100 100 101 101 102 102 103 103 104 104 105 105 106 106 107 107 108 108 109 109 110 110 111 111 112 112 113 113 114 114 115 115 116 116 117 117 118 118 119 119 120 120 121 121 122 122 123 123 124 124 125 125 126 126 127 
        </DataArray>
        <DataArray type="Int32" Name="offsets" format="ascii">
          2 4 6 8 10 12 14 16 18 20 22 24 26 28 30 32 34 36 38 40 42 44 46 48 50 52 54 56 58 60 62 64 66 68 70 72 74 76 78 80 82 84 86 88 90 92 94 96 98 100 102 104 106 108 110 112 114 116 118 120 122 124 126 128 130 132 134 136 138 140 142 144 146 148 150 152 154 156 158 160 162 164 166 168 170 172 174 176 178 180 182 184 186 188 190 192 194 196 198 200 202 204 206 208 210 212 214 216 218 220 222 224 226 228 230 232 234 236 238 240 242 244 246 248 250 252 254 
        </DataArray>
        <DataArray type="Int32" Name="types" format="ascii">
          3 3 3 3 3 3 3 3 3 3 3 3 3 3 3 3 3 3 3 3 3 3 3 3 3 3 3 3 3 3 3 3 3 3 3 3 3 3 3 3 3 3 3 3 3 3 3 3 3 3 3 3 3 3 3 3 3 3 3 3 3 3 3 3 3 3 3 3 3 3 3 3 3 3 3 3 3 3 3 3 3 3 3 3 3 3 3 3 3 3 3 3 3 3 3 3 3 3 3 3 3 3 3 3 3 3 3 3 3 3 3 3 3 3 3 3 3 3 3 3 3 3 3 3 3 3 3         </DataArray>
      </Cells>
    </Piece>
  </UnstructuredGrid>
</VTKFile>
<!-- DATA


-->
