<?xml version="1.0"?>
<VTKFile type="UnstructuredGrid" version="0.1" byte_order="LittleEndian">
  <UnstructuredGrid>
    <Piece NumberOfPoints="128" NumberOfCells="127">
      <PointData Scalars="u">
        <DataArray type="Float32" Name="Y" NumberOfComponents="2">

0 0
0.048754520542966057 -0.024699551441433883
0.05411791424762865 -0.0033541456915617369
0.060968000075438324 0.038330872762513742
0.064565710153753689 0.097595134808967421
0.061411160577132778 0.17084936386080854
0.049356087450966639 0.25401534711770629
0.027605739156939164 0.34287070440371192
-0.0033834269453494534 0.43335975148171019
-0.042091401839423136 0.52183937716809325
-0.086180906107973604 0.60524030059000034
-0.13277298694536893 0.68113707056237094
-0.17872496183070841 0.74773251137852836
-0.22088971415622707 0.80377231935751137
-0.25634318112862026 0.84841223576036873
-0.28257469206342656 0.88106349861566424
-0.29764102035410334 0.90124252862768883
-0.30028850261583429 0.90844874662841868
-0.29004786974167102 0.90209074198817485
-0.26730362972253463 0.88147614938925944
-0.23333462169708091 0.84587460844119766
-0.19031588386367682 0.79465583169224652
-0.14126584933394304 0.72749573817084567
-0.089919031445527028 0.64463270119423122
-0.04050485540693536 0.54714371106490367
0.0025800441713429174 0.43719814124458856
0.035204864970659236 0.31823742298005459
0.054021200076464104 0.19502578434929368
0.05701649752422186 0.073523993169845689
0.044033740374710216 -0.039442561299925322
0.017170182703427087 -0.13671794632541415
-0.019033747753593049 -0.21150712358840237
-0.057685950020207502 -0.25813733714088072
-0.089946017409439125 -0.27276897969940211
-0.10571759146542628 -0.25392305401512666
-0.094548976802680484 -0.20270807329719384
-0.046615205044381158 -0.12267349648534791
0.046365466216360562 -0.019281388382916358
0.19041405416681484 0.10094212043707966
0.38886009028106078 0.23145610141344103
0.64221872398946678 0.3668030445635812
0.94832649025696425 0.50360275791639442
1.3026301992493239 0.64131339786452057
1.6984941483926412 0.78266983091417253
2.12739452996759 0.93374761676795526
2.5789055185398388 1.1036267373381952
3.0404437261157642 1.3036386921195333
3.4968194134279811 1.5461792259175369
3.929735962579576 1.8430713253745907
4.3174725280174604 2.2034898345545577
4.6350600907788131 2.6315308338076551
4.8757652936594083 3.0898551543413633
5.0488301206589412 3.5426894062864003
5.1356788930010993 4.0004404065393775
5.133614491200662 4.4497202586060016
5.0431667842188528 4.8758069600117286
4.868381423592381 5.2635370078826682
4.6168239960695772 5.5982877054469498
4.2992799745912231 5.8669506489011995
3.9291685139909487 6.0587927885388577
3.5217257642512569 6.166113216124347
3.0930434555467499 6.1846307603980062
2.6590650689050084 6.1135744708451458
2.2346421104224552 5.9554888840682878
1.8327377772438389 5.715801094485081
1.4638388007277039 5.4022212154802638
1.1356045110704371 5.0240588068142937
0.8527513952125928 4.59153541128335
0.61714653568616584 4.1151602174817574
0.4280671093774075 3.605216225326298
0.28257613654145947 3.0713825379836157
0.17596563819945518 2.5224982030924794
0.10222495939365268 1.9664567866414178
0.054501624719876476 1.4102096618817725
0.025532350387742039 0.8598498200957938
0.0080310170595668095 0.3207461391423912
-0.0049725233726848166 -0.20230055580525802
-0.019844326618842608 -0.70490468894858194
-0.04210815648522874 -1.1829664907656186
-0.076255991360959036 -1.6325803991749976
-0.12560674251056547 -2.0499899481748227
-0.19221387566481341 -2.4315920317142261
-0.27682363049904396 -2.7739880031065551
-0.37888584248298396 -3.0740742114944331
-0.49661866954707218 -3.32916055669059
-0.6271267251373156 -3.5371027542628029
-0.76656936029996436 -3.6964325184845945
-0.91037247736094251 -3.8064699854577806
-1.0534737932231828 -3.8674044627848763
-1.190588469612673 -3.8803328636107235
-1.3164800062718065 -3.8472496185053009
-1.4262206334504492 -3.7709869424953757
-1.5154263035096236 -3.6551094513150373
-1.5804536884351819 -3.5037716500057949
-1.6185500285856198 -3.3215502347448971
-1.6279507751008901 -3.1132651066032837
-1.6079241762347507 -2.8838033654682973
-1.5587657551672649 -2.6379594247428448
-1.4817486058516518 -2.3803020321726054
-1.3790373518754702 -2.1150757824115485
-1.2535744166029135 -1.8461410830946783
-1.1089470577379943 -1.5769528795436798
-0.94924266904164056 -1.3105750727372247
-0.77889846658389095 -1.049724703683947
-0.60255018784063608 -0.79683776064468714
-0.42488313768390989 -0.5541469572254083
-0.25048803045661278 -0.32376105428846313
-0.083723715894861966 -0.10773525936546124
0.071410973026845029 0.091877065186124415
0.21139347681216847 0.27299972898039876
0.3332784081659329 0.43354229679827211
0.43477908520582415 0.57144540934773025
0.51432560735384869 0.68476311374149701
0.57109602900579726 0.77177903105018308
0.60501872070891882 0.83114981589688897
0.61674641450016887 0.86206641153314612
0.60760548490019195 0.86442140741774021
0.57952728647037099 0.83896962116399731
0.53497125599591477 0.78746897638277547
0.47685131672823139 0.71278980099802269
0.40847725288000747 0.61898266315188499
0.3335206727898975 0.51129756346736932
0.25601073540374869 0.39615051082736569
0.18035811855872785 0.28103713172750355
0.11139729037382656 0.17439705616906229
0.054427923086824856 0.085437529323534323
0.015227481231634768 0.023930091609988723
0 0

        </DataArray>
        <DataArray type="Float32" Name="W" NumberOfComponents="2">

-2.4733760583858748 1.0652289070321841
-2.4662833204955343 1.0618090908064499
-2.4589478439595664 1.0589467851408294
-2.4514170773512554 1.056646899955155
-2.4437377600791748 1.0549062430147014
-2.4359544877314709 1.0537136268823908
-2.4281083793475227 1.0530502348629918
-2.4202359128485251 1.0528902084310681
-2.4123679831319946 1.0532014049042522
-2.4045292226018113 1.0539462650444826
-2.3967376076283622 1.0550827266581073
-2.3890043582001459 1.0565651223766914
-2.3813341233188332 1.0583450073034075
-2.3737254326571655 1.0603718742507242
-2.3661713863038614 1.0625937296309171
-2.3586605491506814 1.0649575202365149
-2.3511780141679521 1.0674094186729119
-2.3437065985529268 1.0698949916973062
-2.336228137334651 1.0723592899855283
-2.3287248392335278 1.0747469089122905
-2.321180668316384 1.0770020769950297
-2.3135827115319292 1.0790688310526562
-2.3059224863574617 1.0808913342959057
-2.2981971349806347 1.0824143850217782
-2.2904104428254866 1.0835841490326346
-2.2825736116297248 1.0843491283772289
-2.2747057130525192 1.0846613531140159
-2.2668337505761174 1.0844777529407155
-2.2589922677538605 1.083761634159049
-2.2512224614414422 1.0824841580837763
-2.243570789978218 1.0806256941025127
-2.2360871068904533 1.078176908977458
-2.2288223968409326 1.0751394580067892
-2.2218262363818146 1.0715261661131503
-2.2151441402959815 1.0673606279220194
-2.2088149775622719 1.0626762121754392
-2.2028686434977125 1.0575145207450483
-2.1973241539413895 1.0519234169139431
-2.1921882853354315 1.0459547915653835
-2.1874548275328562 1.039662270889899
-2.1831044537355462 1.0330990799452149
-2.179105155036968 1.0263162620270074
-2.1754131454114676 1.0193614177909787
-2.1719741232904792 1.012278076906157
-2.1687247803462579 1.0051057562563657
-2.1655944744266185 0.99788069886325981
-2.1625070254523906 0.99063723080896471
-2.159382641320871 0.98340962058177095
-2.1561400245243094 0.97623427534523022
-2.1526987376671345 0.9691520601015774
-2.1489819061659468 0.9622104790461995
-2.1449193000554985 0.95546541850600275
-2.1405543898961779 0.94891192582701422
-2.135876444701458 0.9425780773972372
-2.1308800790702245 0.93649225479723786
-2.1255654205075709 0.93068231470373408
-2.1199380766565632 0.92517467603997661
-2.1140088845222174 0.91999337972263029
-2.1077934414200588 0.91515918192150847
-2.1013114362476935 0.91068874120489685
-2.0945858174260694 0.90659395297322354
-2.0876418481533809 0.90288147191632584
-2.0805061085924876 0.89955244653467992
-2.0732055072446749 0.89660247133768356
-2.0657663600356608 0.89402174464219619
-2.0582135864985625 0.89179540512118172
-2.0505700595271414 0.88990400991929108
-2.0428561304600108 0.8883241119411891
-2.0350893366515348 0.88702889367830995
-2.027284285731298 0.88598881885612046
-2.0194527004565543 0.88517227003842835
-2.0116036008541163 0.88454614876845683
-2.0037435961695449 0.88407642360535732
-1.9958772575825117 0.88372861952240733
-1.988007543111832 0.88346824887483189
-1.9801362479854132 0.88326118913814577
-1.9722644564200629 0.88307401574632671
-1.9643929738051649 0.88287429970983944
-1.9565227214271863 0.88263087949091057
-1.9486550789671766 0.88231411516430336
-1.9407921630230336 0.88189613054460958
-1.932937032897154 0.88135104607796022
-1.9250938179217896 0.88065520223391502
-1.9172677637313018 0.87978737022868525
-1.9094651981517796 0.87872894446503846
-1.901693420720731 0.87746410933654817
-1.8939605231610386 0.87597997219346102
-1.8862751512430664 0.87426665439643236
-1.8786462211682302 0.87231733348561813
-1.8710826056817078 0.87012823145674323
-1.8635928063850535 0.86769854675989699
-1.8561846290459754 0.86503033064587564
-1.8488648780514476 0.86212831156359004
-1.8416390845752302 0.85899967414307277
-1.834511280674834 0.85565380160105575
-1.8274838286092105 0.85210199196800351
-1.8205573114311184 0.8483571592354644
-1.8137304876181231 0.84443353033774915
-1.807000309399069 0.84034634788220786
-1.8003620016933231 0.83611158687384302
-1.7938091963270759 0.83174569154110245
-1.787334114474348 0.82726533598518415
-1.7809277890778645 0.82268720997179945
-1.7745803182777646 0.81802782897109005
-1.7682811405281944 0.81330336570568595
-1.7620193220208864 0.808529499126178
-1.7557838471805498 0.80372127599104171
-1.7495639032944148 0.79889298013236343
-1.7433491507651808 0.79405800504196367
-1.737129971042217 0.78922872657146348
-1.7308976850233644 0.78441637421609711
-1.7246447356718262 0.77963090151408598
-1.7183648297932073 0.77488085837122167
-1.712053035372008 0.77017327041502937
-1.7057058325347196 0.76551353258089616
-1.6993211179929575 0.76090532582476023
-1.6928981645755956 0.75635056696038339
-1.686437538994229 0.75184940199765793
-1.6799409820988089 0.7474002529383651
-1.6734112563909391 0.74299992676416438
-1.6668519653576781 0.73864379339363695
-1.6602673482606363 0.73432603681448172
-1.6536620524907752 0.73003998058097219
-1.6470408837540986 0.72577848560445546
-1.6404085326025146 0.7215344148806665
-1.6337692746894195 0.71730115674569794
-1.6271266421827146 0.71307319572442796
-1.6204830655550917 0.70884671836543889

        </DataArray>
        <DataArray type="Float32" Name="u" NumberOfComponents="1">
          0 0.007874015748031496 0.015748031496062992 0.023622047244094488 0.031496062992125984 0.03937007874015748 0.047244094488188976 0.055118110236220472 0.062992125984251968 0.070866141732283464 0.07874015748031496 0.086614173228346455 0.094488188976377951 0.10236220472440945 0.11023622047244094 0.11811023622047244 0.12598425196850394 0.13385826771653545 0.14173228346456693 0.14960629921259844 0.15748031496062992 0.16535433070866143 0.17322834645669291 0.18110236220472442 0.1889763779527559 0.19685039370078741 0.20472440944881889 0.2125984251968504 0.22047244094488189 0.2283464566929134 0.23622047244094488 0.24409448818897639 0.25196850393700787 0.25984251968503935 0.26771653543307089 0.27559055118110237 0.28346456692913385 0.29133858267716534 0.29921259842519687 0.30708661417322836 0.31496062992125984 0.32283464566929132 0.33070866141732286 0.33858267716535434 0.34645669291338582 0.3543307086614173 0.36220472440944884 0.37007874015748032 0.37795275590551181 0.38582677165354329 0.39370078740157483 0.40157480314960631 0.40944881889763779 0.41732283464566927 0.42519685039370081 0.43307086614173229 0.44094488188976377 0.44881889763779526 0.45669291338582679 0.46456692913385828 0.47244094488188976 0.48031496062992124 0.48818897637795278 0.49606299212598426 0.50393700787401574 0.51181102362204722 0.51968503937007871 0.52755905511811019 0.53543307086614178 0.54330708661417326 0.55118110236220474 0.55905511811023623 0.56692913385826771 0.57480314960629919 0.58267716535433067 0.59055118110236215 0.59842519685039375 0.60629921259842523 0.61417322834645671 0.62204724409448819 0.62992125984251968 0.63779527559055116 0.64566929133858264 0.65354330708661412 0.66141732283464572 0.6692913385826772 0.67716535433070868 0.68503937007874016 0.69291338582677164 0.70078740157480313 0.70866141732283461 0.71653543307086609 0.72440944881889768 0.73228346456692917 0.74015748031496065 0.74803149606299213 0.75590551181102361 0.76377952755905509 0.77165354330708658 0.77952755905511806 0.78740157480314965 0.79527559055118113 0.80314960629921262 0.8110236220472441 0.81889763779527558 0.82677165354330706 0.83464566929133854 0.84251968503937003 0.85039370078740162 0.8582677165354331 0.86614173228346458 0.87401574803149606 0.88188976377952755 0.88976377952755903 0.89763779527559051 0.90551181102362199 0.91338582677165359 0.92125984251968507 0.92913385826771655 0.93700787401574803 0.94488188976377951 0.952755905511811 0.96062992125984248 0.96850393700787396 0.97637795275590555 0.98425196850393704 0.99212598425196852 1
        </DataArray>
      </PointData>
      <CellData Scalars="P">
        <DataArray type="Float32" Name="P" NumberOfComponents="1">
          0.0047131367158035143 0.25508091449810266 0.70521703263714164 1.3105695356904763 2.0248754369575277 2.8020696041751236 3.5982794222086119 4.3737419066566448 5.0945002582751675 5.7337691688343542 6.2728975221263799 6.7018975806289562 7.0195455464835064 7.2330849241435802 7.3575787155196837 7.4149588219604299 7.4328131337295336 7.4429366530755878 7.4796579476520062 7.5779421255975494 7.7712719045825533 8.0893235659420633 8.5554869452828761 9.1843275187764473 9.9791498514124388 10.929886779140613 12.011595192254982 13.183871513549418 14.391491337631766 15.566514302069299 16.631970466168365 17.507063547412603 18.113609447121036 18.383210049606799 18.264485729769458 17.729597728743791 16.779312455643144 15.445998443283409 13.794178626677272 11.918536328782722 9.9395310899642482 7.9969639428627488 6.2419069342680036 4.8273778687213991 3.8980328934189736 3.5790298414375612 3.9641630886295203 5.1034634575675328 6.9907497632000277 9.5521209891419989 12.637025905188196 15.131718874308168 17.48653284782781 19.609104360376673 21.413426247930857 22.825085723891167 23.785975970287154 24.258027014978978 24.22559252110414 23.696268010034171 22.700085011735794 21.287199322480564 19.524343041119248 17.490417156507352 15.27165147327398 12.956750413721171 10.632385990154859 8.379309302121019 6.2692481223412972 4.3626577413944521 2.7073080316783598 1.3376287849697259 0.27469947666248462 -0.47324377338036355 -0.90990720275966452 -1.0497520944736163 -0.9166079775713184 -0.54215175483877609 0.035700156900836839 0.77445266701984627 1.6287188220946582 2.5519067960168935 3.4978778930526686 4.422540224472403 5.2853358551381371 6.0505737794211027 6.6885589070203313 7.1764695991304039 7.4989437338572014 7.6483455118007146 7.624701180121928 7.4353099033638594 7.0940541789481664 6.6204505422754005 6.0384942274103777 5.3753599161009653 4.6600243889993047 3.9218761304115461 3.1893726156640687 2.488799321024731 1.8431766917192771 1.2713534430270008 0.78731732988356462 0.39974809104369974 0.11183133292138515 -0.078654083964412938 -0.17897007328551648 -0.20077949592889677 -0.15925016572536005 -0.071936770429805799 0.042505858468662526 0.16570379599226123 0.28094497986087924 0.37444953925190588 0.43641040893760846 0.46168769731617137 0.45005685249761224 0.40594297018117487 0.33762164493662927 0.25592867917321377 0.17259279403289807 0.098381347749791057 0.04132129664100935 0.0053170458198414225 -0.0104768873810088 -0.011168111018114636 -0.0042048356069698161
        </DataArray>
      </CellData>
      <Points>
        <DataArray type="Float32" NumberOfComponents="3" format="ascii">
          -2.4733760583858748 1.0652289070321841 0
          -2.4662833204955343 1.0618090908064499 0
          -2.4589478439595664 1.0589467851408294 0
          -2.4514170773512554 1.056646899955155 0
          -2.4437377600791748 1.0549062430147014 0
          -2.4359544877314709 1.0537136268823908 0
          -2.4281083793475227 1.0530502348629918 0
          -2.4202359128485251 1.0528902084310681 0
          -2.4123679831319946 1.0532014049042522 0
          -2.4045292226018113 1.0539462650444826 0
          -2.3967376076283622 1.0550827266581073 0
          -2.3890043582001459 1.0565651223766914 0
          -2.3813341233188332 1.0583450073034075 0
          -2.3737254326571655 1.0603718742507242 0
          -2.3661713863038614 1.0625937296309171 0
          -2.3586605491506814 1.0649575202365149 0
          -2.3511780141679521 1.0674094186729119 0
          -2.3437065985529268 1.0698949916973062 0
          -2.336228137334651 1.0723592899855283 0
          -2.3287248392335278 1.0747469089122905 0
          -2.321180668316384 1.0770020769950297 0
          -2.3135827115319292 1.0790688310526562 0
          -2.3059224863574617 1.0808913342959057 0
          -2.2981971349806347 1.0824143850217782 0
          -2.2904104428254866 1.0835841490326346 0
          -2.2825736116297248 1.0843491283772289 0
          -2.2747057130525192 1.0846613531140159 0
          -2.2668337505761174 1.0844777529407155 0
          -2.2589922677538605 1.083761634159049 0
          -2.2512224614414422 1.0824841580837763 0
          -2.243570789978218 1.0806256941025127 0
          -2.2360871068904533 1.078176908977458 0
          -2.2288223968409326 1.0751394580067892 0
          -2.2218262363818146 1.0715261661131503 0
          -2.2151441402959815 1.0673606279220194 0
          -2.2088149775622719 1.0626762121754392 0
          -2.2028686434977125 1.0575145207450483 0
          -2.1973241539413895 1.0519234169139431 0
          -2.1921882853354315 1.0459547915653835 0
          -2.1874548275328562 1.039662270889899 0
          -2.1831044537355462 1.0330990799452149 0
          -2.179105155036968 1.0263162620270074 0
          -2.1754131454114676 1.0193614177909787 0
          -2.1719741232904792 1.012278076906157 0
          -2.1687247803462579 1.0051057562563657 0
          -2.1655944744266185 0.99788069886325981 0
          -2.1625070254523906 0.99063723080896471 0
          -2.159382641320871 0.98340962058177095 0
          -2.1561400245243094 0.97623427534523022 0
          -2.1526987376671345 0.9691520601015774 0
          -2.1489819061659468 0.9622104790461995 0
          -2.1449193000554985 0.95546541850600275 0
          -2.1405543898961779 0.94891192582701422 0
          -2.135876444701458 0.9425780773972372 0
          -2.1308800790702245 0.93649225479723786 0
          -2.1255654205075709 0.93068231470373408 0
          -2.1199380766565632 0.92517467603997661 0
          -2.1140088845222174 0.91999337972263029 0
          -2.1077934414200588 0.91515918192150847 0
          -2.1013114362476935 0.91068874120489685 0
          -2.0945858174260694 0.90659395297322354 0
          -2.0876418481533809 0.90288147191632584 0
          -2.0805061085924876 0.89955244653467992 0
          -2.0732055072446749 0.89660247133768356 0
          -2.0657663600356608 0.89402174464219619 0
          -2.0582135864985625 0.89179540512118172 0
          -2.0505700595271414 0.88990400991929108 0
          -2.0428561304600108 0.8883241119411891 0
          -2.0350893366515348 0.88702889367830995 0
          -2.027284285731298 0.88598881885612046 0
          -2.0194527004565543 0.88517227003842835 0
          -2.0116036008541163 0.88454614876845683 0
          -2.0037435961695449 0.88407642360535732 0
          -1.9958772575825117 0.88372861952240733 0
          -1.988007543111832 0.88346824887483189 0
          -1.9801362479854132 0.88326118913814577 0
          -1.9722644564200629 0.88307401574632671 0
          -1.9643929738051649 0.88287429970983944 0
          -1.9565227214271863 0.88263087949091057 0
          -1.9486550789671766 0.88231411516430336 0
          -1.9407921630230336 0.88189613054460958 0
          -1.932937032897154 0.88135104607796022 0
          -1.9250938179217896 0.88065520223391502 0
          -1.9172677637313018 0.87978737022868525 0
          -1.9094651981517796 0.87872894446503846 0
          -1.901693420720731 0.87746410933654817 0
          -1.8939605231610386 0.87597997219346102 0
          -1.8862751512430664 0.87426665439643236 0
          -1.8786462211682302 0.87231733348561813 0
          -1.8710826056817078 0.87012823145674323 0
          -1.8635928063850535 0.86769854675989699 0
          -1.8561846290459754 0.86503033064587564 0
          -1.8488648780514476 0.86212831156359004 0
          -1.8416390845752302 0.85899967414307277 0
          -1.834511280674834 0.85565380160105575 0
          -1.8274838286092105 0.85210199196800351 0
          -1.8205573114311184 0.8483571592354644 0
          -1.8137304876181231 0.84443353033774915 0
          -1.807000309399069 0.84034634788220786 0
          -1.8003620016933231 0.83611158687384302 0
          -1.7938091963270759 0.83174569154110245 0
          -1.787334114474348 0.82726533598518415 0
          -1.7809277890778645 0.82268720997179945 0
          -1.7745803182777646 0.81802782897109005 0
          -1.7682811405281944 0.81330336570568595 0
          -1.7620193220208864 0.808529499126178 0
          -1.7557838471805498 0.80372127599104171 0
          -1.7495639032944148 0.79889298013236343 0
          -1.7433491507651808 0.79405800504196367 0
          -1.737129971042217 0.78922872657146348 0
          -1.7308976850233644 0.78441637421609711 0
          -1.7246447356718262 0.77963090151408598 0
          -1.7183648297932073 0.77488085837122167 0
          -1.712053035372008 0.77017327041502937 0
          -1.7057058325347196 0.76551353258089616 0
          -1.6993211179929575 0.76090532582476023 0
          -1.6928981645755956 0.75635056696038339 0
          -1.686437538994229 0.75184940199765793 0
          -1.6799409820988089 0.7474002529383651 0
          -1.6734112563909391 0.74299992676416438 0
          -1.6668519653576781 0.73864379339363695 0
          -1.6602673482606363 0.73432603681448172 0
          -1.6536620524907752 0.73003998058097219 0
          -1.6470408837540986 0.72577848560445546 0
          -1.6404085326025146 0.7215344148806665 0
          -1.6337692746894195 0.71730115674569794 0
          -1.6271266421827146 0.71307319572442796 0
          -1.6204830655550917 0.70884671836543889 0
        </DataArray>
      </Points>
      <Cells>
        <DataArray type="Int32" Name="connectivity" format="ascii">
          0 1 1 2 2 3 3 4 4 5 5 6 6 7 7 8 8 9 9 10 10 11 11 12 12 13 13 14 14 15 15 16 16 17 17 18 18 19 19 20 20 21 21 22 22 23 23 24 24 25 25 26 26 27 27 28 28 29 29 30 30 31 31 32 32 33 33 34 34 35 35 36 36 37 37 38 38 39 39 40 40 41 41 42 42 43 43 44 44 45 45 46 46 47 47 48 48 49 49 50 50 51 51 52 52 53 53 54 54 55 55 56 56 57 57 58 58 59 59 60 60 61 61 62 62 63 63 64 64 65 65 66 66 67 67 68 68 69 69 70 70 71 71 72 72 73 73 74 74 75 75 76 76 77 77 78 78 79 79 80 80 81 81 82 82 83 83 84 84 85 85 86 86 87 87 88 88 89 89 90 90 91 91 92 92 93 93 94 94 95 95 96 96 97 97 98 98 99 99 100 100 101 101 102 102 103 103 104 104 105 105 106 106 107 107 108 108 109 109 110 110 111 111 112 112 113 113 114 114 115 115 116 116 117 117 118 118 119 119 120 120 121 121 122 122 123 123 124 124 125 125 126 126 127 
        </DataArray>
        <DataArray type="Int32" Name="offsets" format="ascii">
          2 4 6 8 10 12 14 16 18 20 22 24 26 28 30 32 34 36 38 40 42 44 46 48 50 52 54 56 58 60 62 64 66 68 70 72 74 76 78 80 82 84 86 88 90 92 94 96 98 100 102 104 106 108 110 112 114 116 118 120 122 124 126 128 130 132 134 136 138 140 142 144 146 148 150 152 154 156 158 160 162 164 166 168 170 172 174 176 178 180 182 184 186 188 190 192 194 196 198 200 202 204 206 208 210 212 214 216 218 220 222 224 226 228 230 232 234 236 238 240 242 244 246 248 250 252 254 
        </DataArray>
        <DataArray type="Int32" Name="types" format="ascii">
          3 3 3 3 3 3 3 3 3 3 3 3 3 3 3 3 3 3 3 3 3 3 3 3 3 3 3 3 3 3 3 3 3 3 3 3 3 3 3 3 3 3 3 3 3 3 3 3 3 3 3 3 3 3 3 3 3 3 3 3 3 3 3 3 3 3 3 3 3 3 3 3 3 3 3 3 3 3 3 3 3 3 3 3 3 3 3 3 3 3 3 3 3 3 3 3 3 3 3 3 3 3 3 3 3 3 3 3 3 3 3 3 3 3 3 3 3 3 3 3 3 3 3 3 3 3 3         </DataArray>
      </Cells>
    </Piece>
  </UnstructuredGrid>
</VTKFile>
<!-- DATA


-->
