<?xml version="1.0"?>
<VTKFile type="UnstructuredGrid" version="0.1" byte_order="LittleEndian">
  <UnstructuredGrid>
    <Piece NumberOfPoints="128" NumberOfCells="127">
      <PointData Scalars="u">
        <DataArray type="Float32" Name="Y" NumberOfComponents="2">

0 0
0.012792993893986696 0.0040505967498094377
0.040847378879359672 0.015427950970163614
0.079459838303888197 0.030323319745324057
0.12347686312196719 0.047935042337702863
0.1682183253897967 0.067780283403548941
0.20952218829401403 0.089348418341599359
0.24380375400263024 0.11182881819866239
0.26814242899809299 0.1339281715536248
0.28039610400650211 0.15378949353100738
0.27932977316958518 0.16902006792161561
0.2647334517502879 0.17682743778351834
0.23749738738229761 0.17425101766090587
0.19961219787659604 0.15846325346994705
0.15406904229071597 0.12710119723371729
0.1046496847189102 0.078580356204723659
0.055615828834408458 0.012340936288963308
0.011327262849962339 -0.071016048336382795
-0.024165611134418376 -0.16972928695849565
-0.047501469689987072 -0.2810188639018586
-0.056309146885619221 -0.40135043163252598
-0.049391743958184277 -0.5267836453187501
-0.026774892798849533 -0.65335496134969673
0.010377726142139884 -0.77744311281858147
0.059958760826216692 -0.89607322261244893
0.11918477773049474 -1.0071300160324423
0.18489430725911415 -1.1094681555678376
0.25383508804861049 -1.2029244516349116
0.32290656027464321 -1.2882495498425859
0.38933416858686404 -1.3669839459739861
0.45076313153458919 -1.4413045114927197
0.50526901674015912 -1.5138638873978996
0.55128970608255923 -1.5876375038771711
0.58748812561147512 -1.6657831806431449
0.61255832513734121 -1.7515077339508063
0.62499053547641359 -1.847925091076245
0.62281537394833653 -1.9578823760620028
0.60335484791671601 -2.0837257851228692
0.56301902280638572 -2.2269787547545405
0.49720170228021571 -2.3879134228026606
0.40034386457352528 -2.5650154479116156
0.2662450160293372 -2.7543741353852651
0.088702408740577207 -2.9490747543589455
-0.137463624290034 -3.1387240110972972
-0.41499294876397824 -3.3092924326648805
-0.74246206261131864 -3.4434904933176189
-1.1124598326521775 -3.5218834875566247
-1.5100000602251809 -3.5248674322101552
-1.9116074563592818 -3.4354596675117466
-2.2855238781942582 -3.2426148717571475
-2.5933506396633428 -2.9445105492237662
-2.7112027277170663 -2.6334897561223691
-2.6162004787004545 -2.3984561902369217
-2.4466102611719531 -2.1254535123516805
-2.2107293711550597 -1.8291090805199908
-1.9180132999071886 -1.5204296347833071
-1.5786224884915225 -1.2071158957574373
-1.2030106873833915 -0.89400361889144253
-0.80159294777618273 -0.58358264185927455
-0.38450369761396425 -0.27655000346263398
0.038563259843212752 0.027638876797698258
0.45845171741523266 0.33024818318313182
0.86660028114158782 0.63278816694864592
1.2550827712190682 0.9366032670552028
1.6166511502538625 1.2425308744891763
1.944794679938888 1.5506371223192656
2.2338222807759283 1.8600344177257004
2.4789680448069222 2.1687839666112976
2.6765132235397382 2.4738846109433372
2.8239124261349988 2.7713464591291284
2.919907823367593 3.0563438906166298
2.964613370292124 3.3234377557642358
2.9595517657900072 3.5668514875425408
2.9076301090913228 3.7807811485438307
2.8130456962255201 3.9597159968533
2.6811204606123273 4.0987447266109287
2.5180702569282101 4.1938236078745428
2.3307224171169243 4.241986409125559
2.1262007281901418 4.2414818752840118
1.9116003850272163 4.1918319062014184
1.693676151270924 4.0938114277616036
1.4785649560916669 3.9493582121594599
1.2715599333718615 3.7614266656006912
1.0769472395045938 3.5338032439032174
0.8979107596865914 3.2709024444787684
0.73650389497253599 2.9775613911300667
0.59368267273518072 2.6588483146651449
0.4693908610008658 2.3198963430933461
0.3626857137738736 1.9657696089480818
0.27189232366684196 1.6013643503007322
0.19477503252675871 1.2313438857711976
0.12871559343590472 0.86010337617562438
0.070889426933182981 0.49175827981157549
0.018433059322693825 0.13014936589198214
-0.031402550738026953 -0.22114302237484543
-0.081116728683397615 -0.55878221645757786
-0.13284470689170172 -0.87966165166215871
-0.18826621453170964 -1.180898685145761
-0.24853847872937526 -1.459838352753495
-0.3142545608013359 -1.714067912547512
-0.38542743053259132 -1.9414414163321079
-0.46149959380897643 -2.1401121599996578
-0.54137740134838708 -2.3085697892582391
-0.62348837759170306 -2.4456781561951999
-0.70585906800725562 -2.5507097785669841
-0.78621007429190759 -2.6233729592860526
-0.86206421868815175 -2.6638282500720294
-0.93086323398361903 -2.6726919259241591
-0.99008808458525932 -2.6510253783475211
-1.0373780209000605 -2.6003107168906534
-1.0706437614326725 -2.5224142592232734
-1.088170741846141 -2.4195408653124302
-1.0887091001256197 -2.2941831193527613
-1.071547888638259 -2.1490700961397526
-1.0365718160070743 -1.9871208053520304
-0.98429953306918438 -1.8114073510247835
-0.91590302339608243 -1.6251323563755911
-0.83320801441705805 -1.4316242814095852
-0.73867551998728487 -1.2343529028847127
-0.63536474346478666 -1.0369654419865248
-0.52687776259149199 -0.84334163022608744
-0.41728687701084838 -0.65766344247257502
-0.31104645312125173 -0.48449238114202858
-0.21289276499376508 -0.32884421324907503
-0.1277378494291547 -0.19624816318477886
-0.060566768446505562 -0.092775034222666516
-0.016351661632016741 -0.025016885987230748
0 0

        </DataArray>
        <DataArray type="Float32" Name="W" NumberOfComponents="2">

-2.545978901983498 1.1717507647577543
-2.5431678180434041 1.1643956294013378
-2.5404022991655979 1.1570232445228765
-2.5376258433521461 1.1496549733719246
-2.5347814764245222 1.1423126504817471
-2.5318130528733578 1.1350195976159783
-2.5286665581869157 1.1278015795172815
-2.5252914203347552 1.1206875977326631
-2.5216418243603007 1.1137104322268196
-2.51767800496369 1.1069068569997174
-2.5133674709097003 1.1003174779974394
-2.5086860959775512 1.0939861692414568
-2.5036189979184589 1.0879591153396415
-2.4981611228749161 1.0822835032145059
-2.4923174601153097 1.0770059396754523
-2.486102831192762 1.0721707003192877
-2.479541227193562 1.0678179350770129
-2.4726647041540146 1.0639819632502032
-2.4655118851812925 1.0606897843861141
-2.4581261529798 1.0579599111708278
-2.4505536434960589 1.0558015991208975
-2.4428411667553269 1.0542145093648898
-2.4350341831293671 1.0531888002930616
-2.4271749528130879 1.0527056063885616
-2.4193009555928922 1.0527378323658181
-2.4114436506793933 1.053251170622121
-2.4036276165380528 1.0542052410677321
-2.3958700821159202 1.055554754172582
-2.388180836660363 1.0572506088752158
-2.3805624873740587 1.0592408544469976
-2.3730110231891892 1.0614714668831862
-2.3655166386587836 1.0638869134951074
-2.358064773227694 1.0664305021714326
-2.3506373263016953 1.0690445329235592
-2.3432140156555366 1.0716702880717011
-2.3357738538284023 1.0742479134670335
-2.3282967223593634 1.0767162564577351
-2.3207650253137815 1.0790127369190692
-2.3131654000971906 1.0810733354156015
-2.3054904539350978 1.0828327868593595
-2.2977404779824524 1.0842250676578253
-2.2899250679061036 1.0851842573453916
-2.2820645511520214 1.0856458393682735
-2.2741910897605253 1.08554847690517
-2.2663492984341826 1.0848362554331021
-2.2585961979236422 1.0834613226468799
-2.2510003231758695 1.081386779782207
-2.243639834503278 1.0785895927118998
-2.2365995470092908 1.0750632090194938
-2.2299669017759083 1.0708195075711431
-2.2238270450000379 1.0658896927094386
-2.2182573382877835 1.0603237970960839
-2.2128557332922054 1.054594628348611
-2.2076163389772021 1.0487167587195534
-2.2025286398390507 1.0427071144052105
-2.1975780103831366 1.0365840686544772
-2.1927463013947701 1.0303667593673724
-2.1880124699038386 1.0240746116735322
-2.1833532273235425 1.0177270381415777
-2.178743685181169 1.0113432844357202
-2.1741579834442799 1.0049423861244977
-2.169569891524803 0.99854320246755479
-2.1649533759510691 0.99216449481508517
-2.1602831311622288 0.98582502026056029
-2.1555350709216312 0.97954361501023623
-2.1506867776886156 0.9733392463128212
-2.1457179062815372 0.96723101656817401
-2.1406105367258257 0.96123810830180256
-2.1353494697449529 0.95537966396138252
-2.1299224573303408 0.94967459984292324
-2.1243203605648779 0.94414135871147908
-2.1185372276181171 0.9387976106027226
-2.1125702866899618 0.93365991558210903
-2.1064198516100165 0.92874336558124115
-2.100089141600749 0.92406122453536821
-2.0935840210443168 0.91962458669839564
-2.0869126695174058 0.91544207212374462
-2.0800851963986617 0.91151957593713406
-2.0731132175608997 0.90786008441768973
-2.0660094136805127 0.90446356641187886
-2.0587870903183068 0.90132694368775446
-2.0514597591071455 0.89844413898145092
-2.044040757246699 0.89580619614427526
-2.0365429193159015 0.89340146332435089
-2.0289783115211684 0.89121582773748775
-2.0213580342889363 0.88923298937758755
-2.0136920949517787 0.88743476092972207
-2.0059893484750067 0.88580138201072434
-1.9982575009462022 0.88431183743157749
-1.9905031680309231 0.88294417117982849
-1.982731978824098 0.88167578999014706
-1.9749487144690894 0.8804837524715925
-1.9671574704978481 0.87934504160712013
-1.9593618319638477 0.87823681991001334
-1.9515650509862636 0.87713666754860686
-1.9437702171988607 0.87602280432416701
-1.9359804127157723 0.874874296541028
-1.9281988445225848 0.8736712496108161
-1.9204289486251167 0.87239498677436933
-1.9126744618018032 0.87102821370862005
-1.9049394583764063 0.86955516811679523
-1.8972283510235477 0.86796175277840604
-1.8895458562039544 0.86623565004690795
-1.8818969263565839 0.86436641549417814
-1.8742866524021415 0.86234554835436306
-1.8667201413847359 0.86016653663027098
-1.8592023751441353 0.85782487518058415
-1.8517380567251656 0.85531805576690667
-1.844331451759412 0.85264552884508216
-1.8369862322795052 0.84980863775836957
-1.8297053303477087 0.84681052684525437
-1.8224908085163722 0.84365602572567433
-1.8153437535218728 0.84035151259716612
-1.8082641987912069 0.83690475969190903
-1.8012510803623691 0.83332476407140088
-1.7943022297364115 0.82962156664543363
-1.7874144060347503 0.82580606169963722
-1.7805833686637322 0.82188979833133735
-1.7738039905117431 0.81788477408405835
-1.7670704105343091 0.81380321982086601
-1.7603762234270204 0.80965737359655154
-1.7537147029566409 0.80545924011446668
-1.7470790544458945 0.80122033144444427
-1.7404626909463132 0.79695138421009193
-1.7338595268893291 0.79266204861167977
-1.72726428263471 0.78836054561462521
-1.7206727935466999 0.78405329056001305
-1.7140823182691884 0.77974448445714739

        </DataArray>
        <DataArray type="Float32" Name="u" NumberOfComponents="1">
          0 0.007874015748031496 0.015748031496062992 0.023622047244094488 0.031496062992125984 0.03937007874015748 0.047244094488188976 0.055118110236220472 0.062992125984251968 0.070866141732283464 0.07874015748031496 0.086614173228346455 0.094488188976377951 0.10236220472440945 0.11023622047244094 0.11811023622047244 0.12598425196850394 0.13385826771653545 0.14173228346456693 0.14960629921259844 0.15748031496062992 0.16535433070866143 0.17322834645669291 0.18110236220472442 0.1889763779527559 0.19685039370078741 0.20472440944881889 0.2125984251968504 0.22047244094488189 0.2283464566929134 0.23622047244094488 0.24409448818897639 0.25196850393700787 0.25984251968503935 0.26771653543307089 0.27559055118110237 0.28346456692913385 0.29133858267716534 0.29921259842519687 0.30708661417322836 0.31496062992125984 0.32283464566929132 0.33070866141732286 0.33858267716535434 0.34645669291338582 0.3543307086614173 0.36220472440944884 0.37007874015748032 0.37795275590551181 0.38582677165354329 0.39370078740157483 0.40157480314960631 0.40944881889763779 0.41732283464566927 0.42519685039370081 0.43307086614173229 0.44094488188976377 0.44881889763779526 0.45669291338582679 0.46456692913385828 0.47244094488188976 0.48031496062992124 0.48818897637795278 0.49606299212598426 0.50393700787401574 0.51181102362204722 0.51968503937007871 0.52755905511811019 0.53543307086614178 0.54330708661417326 0.55118110236220474 0.55905511811023623 0.56692913385826771 0.57480314960629919 0.58267716535433067 0.59055118110236215 0.59842519685039375 0.60629921259842523 0.61417322834645671 0.62204724409448819 0.62992125984251968 0.63779527559055116 0.64566929133858264 0.65354330708661412 0.66141732283464572 0.6692913385826772 0.67716535433070868 0.68503937007874016 0.69291338582677164 0.70078740157480313 0.70866141732283461 0.71653543307086609 0.72440944881889768 0.73228346456692917 0.74015748031496065 0.74803149606299213 0.75590551181102361 0.76377952755905509 0.77165354330708658 0.77952755905511806 0.78740157480314965 0.79527559055118113 0.80314960629921262 0.8110236220472441 0.81889763779527558 0.82677165354330706 0.83464566929133854 0.84251968503937003 0.85039370078740162 0.8582677165354331 0.86614173228346458 0.87401574803149606 0.88188976377952755 0.88976377952755903 0.89763779527559051 0.90551181102362199 0.91338582677165359 0.92125984251968507 0.92913385826771655 0.93700787401574803 0.94488188976377951 0.952755905511811 0.96062992125984248 0.96850393700787396 0.97637795275590555 0.98425196850393704 0.99212598425196852 1
        </DataArray>
      </PointData>
      <CellData Scalars="P">
        <DataArray type="Float32" Name="P" NumberOfComponents="1">
          0.0033522061850015136 -0.0052169012705294065 0.010500627160659812 0.073549277279522526 0.19193095629584869 0.36058727802150581 0.56374905898138095 0.77755038651584574 0.9728228748381027 1.1179834615243271 1.1819100901105184 1.1366720492203835 0.95995652740293835 0.63702139878683584 0.16201537215410083 -0.46145530441752369 -1.2205712768121137 -2.0943332086808129 -3.0552765345317878 -4.0716859060922177 -5.110074830990702 -6.1376738561809097 -7.1246810091581727 -8.0460671925569898 -8.8827884337229346 -9.6223257381161869 -10.258541486155938 -10.790900820959628 -11.223152681973367 -11.561597051001534 -11.813084663925951 -11.982906999853796 -12.072742659815317 -12.078835703573938 -11.990594985496347 -11.789821410721011 -11.45078948535539 -10.941423875881966 -10.225809961384972 -9.2682442504730567 -8.0389471128235392 -6.5214062179223484 -4.7210772778188739 -2.6748331629797022 -0.46013946965286107 1.7975046827483296 3.9206922508508089 5.6817967774914964 6.8120260196830991 7.0189708786158871 6.0126206851862323 5.3478207547124104 4.4209502679544102 3.3487653322032318 2.2398449015229582 1.1889033504188411 0.27371053740716883 -0.44611624428074814 -0.9290317531087966 -1.1506430368063685 -1.102281245057531 -0.78929385238446004 -0.22920234804689707 0.55019408858770691 1.5127337963418894 2.6158190038098206 3.8123571565682832 5.0527193848480882 6.2867069177560566 7.4654988634537442 8.5435353888270473 9.4802729188310106 10.241736110810653 10.801787788065733 11.143044256615381 11.257379498291671 11.145986086387516 10.818990432390796 10.294651396463241 9.5982004098426419 8.7604045433643307 7.8159489045666968 6.8017402040372295 5.7552295571294385 4.7128410471488653 3.7085755492426009 2.7728394189573642 1.9315273914142306 1.2053704670600875 0.60954407530977617 0.1535201042498095 -0.15886146865322298 -0.32913002462770324 -0.36376119258973416 -0.27362331526194994 -0.0733222885198756 0.21952822506411437 0.58508599216168244 1.0020851168050009 1.4486441549459299 1.9030558840162852 2.3445380788318144 2.7539257165545745 3.1142864710855886 3.4114432888455624 3.6343902941306481 3.7755911771042929 3.83115240389 3.8008668322119159 3.6881263844042849 3.4997051402625323 3.2454164868470454 2.9376498804215321 2.5907946013197756 2.220560080308708 1.84320558880144 1.47469709103373 1.12981667038233 0.82126089268971725 0.55877920872958009 0.34842197933690994 0.19198910949380488 0.086792733766396596 0.025867747529999398 -0.0012223446652590785 -0.0068357052265047569 -0.0028284062559380567
        </DataArray>
      </CellData>
      <Points>
        <DataArray type="Float32" NumberOfComponents="3" format="ascii">
          -2.545978901983498 1.1717507647577543 0
          -2.5431678180434041 1.1643956294013378 0
          -2.5404022991655979 1.1570232445228765 0
          -2.5376258433521461 1.1496549733719246 0
          -2.5347814764245222 1.1423126504817471 0
          -2.5318130528733578 1.1350195976159783 0
          -2.5286665581869157 1.1278015795172815 0
          -2.5252914203347552 1.1206875977326631 0
          -2.5216418243603007 1.1137104322268196 0
          -2.51767800496369 1.1069068569997174 0
          -2.5133674709097003 1.1003174779974394 0
          -2.5086860959775512 1.0939861692414568 0
          -2.5036189979184589 1.0879591153396415 0
          -2.4981611228749161 1.0822835032145059 0
          -2.4923174601153097 1.0770059396754523 0
          -2.486102831192762 1.0721707003192877 0
          -2.479541227193562 1.0678179350770129 0
          -2.4726647041540146 1.0639819632502032 0
          -2.4655118851812925 1.0606897843861141 0
          -2.4581261529798 1.0579599111708278 0
          -2.4505536434960589 1.0558015991208975 0
          -2.4428411667553269 1.0542145093648898 0
          -2.4350341831293671 1.0531888002930616 0
          -2.4271749528130879 1.0527056063885616 0
          -2.4193009555928922 1.0527378323658181 0
          -2.4114436506793933 1.053251170622121 0
          -2.4036276165380528 1.0542052410677321 0
          -2.3958700821159202 1.055554754172582 0
          -2.388180836660363 1.0572506088752158 0
          -2.3805624873740587 1.0592408544469976 0
          -2.3730110231891892 1.0614714668831862 0
          -2.3655166386587836 1.0638869134951074 0
          -2.358064773227694 1.0664305021714326 0
          -2.3506373263016953 1.0690445329235592 0
          -2.3432140156555366 1.0716702880717011 0
          -2.3357738538284023 1.0742479134670335 0
          -2.3282967223593634 1.0767162564577351 0
          -2.3207650253137815 1.0790127369190692 0
          -2.3131654000971906 1.0810733354156015 0
          -2.3054904539350978 1.0828327868593595 0
          -2.2977404779824524 1.0842250676578253 0
          -2.2899250679061036 1.0851842573453916 0
          -2.2820645511520214 1.0856458393682735 0
          -2.2741910897605253 1.08554847690517 0
          -2.2663492984341826 1.0848362554331021 0
          -2.2585961979236422 1.0834613226468799 0
          -2.2510003231758695 1.081386779782207 0
          -2.243639834503278 1.0785895927118998 0
          -2.2365995470092908 1.0750632090194938 0
          -2.2299669017759083 1.0708195075711431 0
          -2.2238270450000379 1.0658896927094386 0
          -2.2182573382877835 1.0603237970960839 0
          -2.2128557332922054 1.054594628348611 0
          -2.2076163389772021 1.0487167587195534 0
          -2.2025286398390507 1.0427071144052105 0
          -2.1975780103831366 1.0365840686544772 0
          -2.1927463013947701 1.0303667593673724 0
          -2.1880124699038386 1.0240746116735322 0
          -2.1833532273235425 1.0177270381415777 0
          -2.178743685181169 1.0113432844357202 0
          -2.1741579834442799 1.0049423861244977 0
          -2.169569891524803 0.99854320246755479 0
          -2.1649533759510691 0.99216449481508517 0
          -2.1602831311622288 0.98582502026056029 0
          -2.1555350709216312 0.97954361501023623 0
          -2.1506867776886156 0.9733392463128212 0
          -2.1457179062815372 0.96723101656817401 0
          -2.1406105367258257 0.96123810830180256 0
          -2.1353494697449529 0.95537966396138252 0
          -2.1299224573303408 0.94967459984292324 0
          -2.1243203605648779 0.94414135871147908 0
          -2.1185372276181171 0.9387976106027226 0
          -2.1125702866899618 0.93365991558210903 0
          -2.1064198516100165 0.92874336558124115 0
          -2.100089141600749 0.92406122453536821 0
          -2.0935840210443168 0.91962458669839564 0
          -2.0869126695174058 0.91544207212374462 0
          -2.0800851963986617 0.91151957593713406 0
          -2.0731132175608997 0.90786008441768973 0
          -2.0660094136805127 0.90446356641187886 0
          -2.0587870903183068 0.90132694368775446 0
          -2.0514597591071455 0.89844413898145092 0
          -2.044040757246699 0.89580619614427526 0
          -2.0365429193159015 0.89340146332435089 0
          -2.0289783115211684 0.89121582773748775 0
          -2.0213580342889363 0.88923298937758755 0
          -2.0136920949517787 0.88743476092972207 0
          -2.0059893484750067 0.88580138201072434 0
          -1.9982575009462022 0.88431183743157749 0
          -1.9905031680309231 0.88294417117982849 0
          -1.982731978824098 0.88167578999014706 0
          -1.9749487144690894 0.8804837524715925 0
          -1.9671574704978481 0.87934504160712013 0
          -1.9593618319638477 0.87823681991001334 0
          -1.9515650509862636 0.87713666754860686 0
          -1.9437702171988607 0.87602280432416701 0
          -1.9359804127157723 0.874874296541028 0
          -1.9281988445225848 0.8736712496108161 0
          -1.9204289486251167 0.87239498677436933 0
          -1.9126744618018032 0.87102821370862005 0
          -1.9049394583764063 0.86955516811679523 0
          -1.8972283510235477 0.86796175277840604 0
          -1.8895458562039544 0.86623565004690795 0
          -1.8818969263565839 0.86436641549417814 0
          -1.8742866524021415 0.86234554835436306 0
          -1.8667201413847359 0.86016653663027098 0
          -1.8592023751441353 0.85782487518058415 0
          -1.8517380567251656 0.85531805576690667 0
          -1.844331451759412 0.85264552884508216 0
          -1.8369862322795052 0.84980863775836957 0
          -1.8297053303477087 0.84681052684525437 0
          -1.8224908085163722 0.84365602572567433 0
          -1.8153437535218728 0.84035151259716612 0
          -1.8082641987912069 0.83690475969190903 0
          -1.8012510803623691 0.83332476407140088 0
          -1.7943022297364115 0.82962156664543363 0
          -1.7874144060347503 0.82580606169963722 0
          -1.7805833686637322 0.82188979833133735 0
          -1.7738039905117431 0.81788477408405835 0
          -1.7670704105343091 0.81380321982086601 0
          -1.7603762234270204 0.80965737359655154 0
          -1.7537147029566409 0.80545924011446668 0
          -1.7470790544458945 0.80122033144444427 0
          -1.7404626909463132 0.79695138421009193 0
          -1.7338595268893291 0.79266204861167977 0
          -1.72726428263471 0.78836054561462521 0
          -1.7206727935466999 0.78405329056001305 0
          -1.7140823182691884 0.77974448445714739 0
        </DataArray>
      </Points>
      <Cells>
        <DataArray type="Int32" Name="connectivity" format="ascii">
          0 1 1 2 2 3 3 4 4 5 5 6 6 7 7 8 8 9 9 10 10 11 11 12 12 13 13 14 14 15 15 16 16 17 17 18 18 19 19 20 20 21 21 22 22 23 23 24 24 25 25 26 26 27 27 28 28 29 29 30 30 31 31 32 32 33 33 34 34 35 35 36 36 37 37 38 38 39 39 40 40 41 41 42 42 43 43 44 44 45 45 46 46 47 47 48 48 49 49 50 50 51 51 52 52 53 53 54 54 55 55 56 56 57 57 58 58 59 59 60 60 61 61 62 62 63 63 64 64 65 65 66 66 67 67 68 68 69 69 70 70 71 71 72 72 73 73 74 74 75 75 76 76 77 77 78 78 79 79 80 80 81 81 82 82 83 83 84 84 85 85 86 86 87 87 88 88 89 89 90 90 91 91 92 92 93 93 94 94 95 95 96 96 97 97 98 98 99 99 100 100 101 101 102 102 103 103 104 104 105 105 106 106 107 107 108 108 109 109 110 110 111 111 112 112 113 113 114 114 115 115 116 116 117 117 118 118 119 119 120 120 121 121 122 122 123 123 124 124 125 125 126 126 127 
        </DataArray>
        <DataArray type="Int32" Name="offsets" format="ascii">
          2 4 6 8 10 12 14 16 18 20 22 24 26 28 30 32 34 36 38 40 42 44 46 48 50 52 54 56 58 60 62 64 66 68 70 72 74 76 78 80 82 84 86 88 90 92 94 96 98 100 102 104 106 108 110 112 114 116 118 120 122 124 126 128 130 132 134 136 138 140 142 144 146 148 150 152 154 156 158 160 162 164 166 168 170 172 174 176 178 180 182 184 186 188 190 192 194 196 198 200 202 204 206 208 210 212 214 216 218 220 222 224 226 228 230 232 234 236 238 240 242 244 246 248 250 252 254 
        </DataArray>
        <DataArray type="Int32" Name="types" format="ascii">
          3 3 3 3 3 3 3 3 3 3 3 3 3 3 3 3 3 3 3 3 3 3 3 3 3 3 3 3 3 3 3 3 3 3 3 3 3 3 3 3 3 3 3 3 3 3 3 3 3 3 3 3 3 3 3 3 3 3 3 3 3 3 3 3 3 3 3 3 3 3 3 3 3 3 3 3 3 3 3 3 3 3 3 3 3 3 3 3 3 3 3 3 3 3 3 3 3 3 3 3 3 3 3 3 3 3 3 3 3 3 3 3 3 3 3 3 3 3 3 3 3 3 3 3 3 3 3         </DataArray>
      </Cells>
    </Piece>
  </UnstructuredGrid>
</VTKFile>
<!-- DATA


-->
