<?xml version="1.0"?>
<VTKFile type="UnstructuredGrid" version="0.1" byte_order="LittleEndian">
  <UnstructuredGrid>
    <Piece NumberOfPoints="128" NumberOfCells="127">
      <PointData Scalars="u">
        <DataArray type="Float32" Name="Y" NumberOfComponents="2">

0 0
0.053099637939736363 0.074112000802162764
0.063197484293578313 0.096447000577598863
0.087671157288371326 0.11365077269195957
0.11382564575026843 0.12423428466050856
0.1493011563097987 0.14101088516401472
0.15213134033711834 0.15247481606604962
0.14779857095387935 0.16423135627368515
0.14632894040475616 0.17526075583321202
0.14679354736496436 0.18292217047251288
0.15056247633370165 0.18607192791823904
0.15584413703151226 0.18338710440577563
0.16155960862008598 0.17439097141534735
0.16659600027914151 0.15897746278355637
0.17003432407569963 0.13720304538845349
0.17058107384357121 0.10932716976226156
0.16742816482191689 0.075718751503375606
0.15845762562316712 0.037135088435038231
0.14498643059388638 -0.0072702158141125682
0.12457016330469599 -0.058035231263262488
0.095925795180137094 -0.11545227875706844
0.056279364377613626 -0.1781801318311533
0.0073495401221190847 -0.24706405236852316
-0.053544390670893463 -0.32050043893196373
-0.12757592111685459 -0.39548866612922873
-0.21307128883589643 -0.47010668321238336
-0.30795600261988659 -0.54365664134549641
-0.41363031532420103 -0.61127255927751023
-0.52591060468296769 -0.67162516518147297
-0.64258610436882213 -0.72267781433016187
-0.76040878619343477 -0.76491509673565561
-0.87900601589998406 -0.79470962954665658
-0.99405481346708657 -0.81289541460964088
-1.1029472680789223 -0.82164910609132491
-1.2056872606815678 -0.81990389925705576
-1.2997987483995903 -0.80798081551984424
-1.3823859102288167 -0.78514271313129036
-1.4499137104498301 -0.75613374293668656
-1.5034556612248637 -0.72070889063218346
-1.5430202758216611 -0.68080976727267362
-1.5690672532003549 -0.63837588452708682
-1.5825893538838141 -0.59572968955512173
-1.5838258093146564 -0.55074716880843033
-1.5697999218332817 -0.50639305871331153
-1.5395678861454405 -0.46342549069798528
-1.493545907353657 -0.42272887036715195
-1.4310761369175673 -0.38259026479703512
-1.3497002116543497 -0.34505437378098947
-1.2496741894685623 -0.3102789712293611
-1.1339180378370446 -0.27772549948778008
-1.0043371300388564 -0.24675252344156284
-0.86276288399410705 -0.21665133993390964
-0.71005838309258851 -0.18705633105864752
-0.54735194240104224 -0.15679000588060807
-0.37920559809073079 -0.1229436800537644
-0.20778579568375016 -0.087044239977951632
-0.037203256164464391 -0.044307806299684775
0.13180463543432483 0.002270534274994298
0.29633158286006694 0.056159701007399719
0.44914468596493273 0.12086000933010993
0.58871724687152349 0.18865820414508483
0.70713057156192294 0.26542827827619425
0.80468521689307637 0.34099280500790685
0.87207258936578302 0.41987350534404688
0.91140496786105829 0.48734314969545356
0.91132266510885018 0.54453019982542283
0.87236437288849311 0.57479168677424808
0.79053469637377105 0.57103573054428136
0.6830293978418438 0.51673165241843388
0.55533684780065806 0.41493828055724813
0.41883978099663588 0.26528595094872975
0.27683446613898721 0.073939169034101984
0.16550463073360325 -0.16271810099492465
0.056415585383189949 -0.40835467152126226
-0.023151105437956666 -0.64656590649773449
-0.063644827870127388 -0.86337423195575769
-0.069552981945745163 -1.0489538960244524
-0.046829836896179831 -1.1999721802364114
-0.0044184526684716251 -1.3177769627649991
0.051956306023307766 -1.407378282677362
0.11739262499250072 -1.4747485866442012
0.18853970838781445 -1.5258666432749985
0.26339460257334479 -1.5660541970966424
0.34100416189943544 -1.5996551832544641
0.42114591715192046 -1.6299579332407643
0.50405225024203926 -1.6592619859418543
0.59005311650106163 -1.6890451377611981
0.67983179679916961 -1.7199108549081528
0.77371714080547738 -1.7518856977328738
0.87191964965678204 -1.7845480257568602
0.97560455718972339 -1.8166243504720592
1.0833230050711349 -1.8486471872114774
1.1958855299560298 -1.8807871203515347
1.3136441069509637 -1.9133210134532936
1.4369800320859176 -1.9465417514098975
1.5663824901582586 -1.9808742954272158
1.7025605964126536 -2.0169960020541779
1.8465835020039194 -2.0559533731576272
2.000150751538758 -2.0991600464607285
2.1654537656612534 -2.14886273569428
2.3456443996935685 -2.2078345139613944
2.5436354926102172 -2.2804665819458321
2.7641139533652459 -2.3689603972484998
3.0104760117534943 -2.4764708993102751
3.2861746078923275 -2.6064453098625617
3.5928676685896654 -2.7640555728965177
3.9312411691733171 -2.9521869692555445
4.2978339017272722 -3.1740821705541657
4.6856941628203934 -3.4308444526700863
5.082589892927591 -3.7225200944703891
5.4714940100467313 -4.0457662504355563
5.8304651876756379 -4.3936144429721358
6.1338272442565547 -4.7534505175197559
6.3561016310459602 -5.1042263297056483
6.471842837516772 -5.4219845706154741
6.4610721564521763 -5.6761134877926809
6.3125805001607018 -5.8336371545965102
6.0216297695042815 -5.8666860911200187
5.5946905115442247 -5.7525078004429639
5.04138474470603 -5.4813160991752694
4.3818404281162318 -5.0475736923230734
3.6391622205960261 -4.4536305684886077
2.8498982018118983 -3.7029195960029297
2.0168839558749498 -2.827421041626589
1.2914731220345443 -1.8377364176702042
0.66390585291016513 -0.93447771367246579
0.22535205503643219 -0.25942395166972515
0 0

        </DataArray>
        <DataArray type="Float32" Name="W" NumberOfComponents="2">

-32.429448251943626 10.312446635355712
-32.423200798050253 10.317240947278917
-32.416766215121214 10.321781475670955
-32.410138161286504 10.326035157338987
-32.403304809592399 10.329951204533772
-32.39626788540545 10.333489212593065
-32.389035286162496 10.336608747374605
-32.381628241649679 10.339287518031773
-32.374075338784657 10.341521830078468
-32.366404629675031 10.343309939744222
-32.358643931086121 10.344654370396247
-32.350819574629483 10.345556795736313
-32.342957052295425 10.346020237299241
-32.335080987089299 10.346048964898948
-32.327215108882363 10.345648421963851
-32.319382274717263 10.344824732843847
-32.311604420452291 10.343585364364728
-32.303902558895984 10.341938646052952
-32.296295878333538 10.339897067805589
-32.288803162845035 10.337470524043898
-32.28144232790914 10.334669405362224
-32.274230628838851 10.331504156817392
-32.267182459917187 10.327989911141279
-32.260313237225837 10.324137693480138
-32.253637551973384 10.31995915222091
-32.247166772259625 10.315469928144683
-32.240910496289288 10.310686390158253
-32.234880655840513 10.305620490422337
-32.229084162934626 10.300289258337431
-32.223526520968392 10.294709563822074
-32.218210779435225 10.288899036144707
-32.213142900003525 10.282871193472385
-32.20832255487759 10.276643716632258
-32.203746450091842 10.270234713676905
-32.199414991893732 10.263657984402064
-32.195326899168222 10.256927365788572
-32.191479031659554 10.25005666972446
-32.18785892845473 10.24306337413533
-32.184459004786355 10.235960513517355
-32.18126968709781 10.228760711677685
-32.178279375896132 10.221476088844904
-32.175474688410901 10.214118083615414
-32.172849771776654 10.206694121698083
-32.170388104180397 10.199214514329126
-32.168071406297386 10.191688808433844
-32.165879529412045 10.184125865399865
-32.163801077429184 10.176531019232762
-32.161812668717168 10.168912145842208
-32.15988886519564 10.161276735627032
-32.158002321714477 10.153632053793316
-32.156136061999362 10.145982400082458
-32.154259992730765 10.13833513499336
-32.152355161787646 10.130694953766554
-32.150389034195562 10.12307026615108
-32.148329310550324 10.115470254318277
-32.146155125497735 10.107902094525116
-32.143831771666299 10.100378263284487
-32.141338483018835 10.092908873458006
-32.138640698633985 10.085510704374933
-32.135704496066076 10.078203671439923
-32.132511949297836 10.071004711902708
-32.12903227206565 10.063939808603774
-32.125250416439215 10.05703167305747
-32.121140794436208 10.050313071177086
-32.116695026147433 10.043811729165338
-32.111895630345771 10.037566600874412
-32.106743499954241 10.031608874562705
-32.1012445416739 10.025969457446873
-32.095421248042278 10.020665425187461
-32.08928803535423 10.015722894729628
-32.082863328952591 10.011165589435818
-32.076168888581812 10.007014551246854
-32.069238678197188 10.003270285575326
-32.062096913094287 9.9999470775473771
-32.054769281123058 9.9970578329860977
-32.047287761857568 9.9945953589588559
-32.039681401285989 9.9925516958700626
-32.031976440365135 9.9909194153554495
-32.024196483066895 9.9896941192986972
-32.016363971060343 9.9888696575830043
-32.008499947695974 9.9884402684477003
-32.000624346413801 9.988400286836173
-31.992756170120281 9.9887438449437553
-31.984913576731511 9.9894646072332112
-31.977113893513092 9.9905555733850946
-31.969373582240728 9.9920089413490665
-31.961708175280563 9.993816036863004
-31.95413211309906 9.9959669974164864
-31.946658812052146 9.9984514189271749
-31.939300543697001 10.001258132052762
-31.932068387909432 10.004375309474959
-31.924973518577804 10.007793318555214
-31.918024801425787 10.011499302912966
-31.911229814547905 10.015480021871928
-31.904594816826009 10.019721920014728
-31.898124718677614 10.024211195275516
-31.891823050938228 10.028933859561821
-31.885691923771045 10.033875783628496
-31.879731965981389 10.039022719744969
-31.873942493647299 10.044360578850508
-31.868320874877767 10.049874814414412
-31.862862576130489 10.055550642656401
-31.857558242144812 10.061370501937189
-31.852398968380331 10.067319227145067
-31.847372941691216 10.073380850833873
-31.842465918214629 10.079539116602241
-31.837657223827257 10.085774386469444
-31.832926168192074 10.092068703229318
-31.828246267895189 10.098401097236694
-31.823591505586272 10.104751960486956
-31.818931069443785 10.111098649340301
-31.814236588394017 10.117420207641173
-31.809476813849496 10.123692784843637
-31.804626459336252 10.129895645028604
-31.799663958775657 10.136009239922849
-31.794570144531061 10.14201397568668
-31.789336372622593 10.147897259957222
-31.783954892200132 10.153645906050825
-31.778426303542677 10.159253405728927
-31.772746879925471 10.164708295680677
-31.76691504865601 10.170000178895634
-31.760923462860411 10.17511077187921
-31.754772148033055 10.180028288348387
-31.748443677478747 10.184716051693059
-31.742065715834023 10.189336619360965
-31.735640304384155 10.193891384967616
-31.729161414598035 10.198370228543483
-31.722613166525317 10.202747597018334

        </DataArray>
        <DataArray type="Float32" Name="u" NumberOfComponents="1">
          0 0.007874015748031496 0.015748031496062992 0.023622047244094488 0.031496062992125984 0.03937007874015748 0.047244094488188976 0.055118110236220472 0.062992125984251968 0.070866141732283464 0.07874015748031496 0.086614173228346455 0.094488188976377951 0.10236220472440945 0.11023622047244094 0.11811023622047244 0.12598425196850394 0.13385826771653545 0.14173228346456693 0.14960629921259844 0.15748031496062992 0.16535433070866143 0.17322834645669291 0.18110236220472442 0.1889763779527559 0.19685039370078741 0.20472440944881889 0.2125984251968504 0.22047244094488189 0.2283464566929134 0.23622047244094488 0.24409448818897639 0.25196850393700787 0.25984251968503935 0.26771653543307089 0.27559055118110237 0.28346456692913385 0.29133858267716534 0.29921259842519687 0.30708661417322836 0.31496062992125984 0.32283464566929132 0.33070866141732286 0.33858267716535434 0.34645669291338582 0.3543307086614173 0.36220472440944884 0.37007874015748032 0.37795275590551181 0.38582677165354329 0.39370078740157483 0.40157480314960631 0.40944881889763779 0.41732283464566927 0.42519685039370081 0.43307086614173229 0.44094488188976377 0.44881889763779526 0.45669291338582679 0.46456692913385828 0.47244094488188976 0.48031496062992124 0.48818897637795278 0.49606299212598426 0.50393700787401574 0.51181102362204722 0.51968503937007871 0.52755905511811019 0.53543307086614178 0.54330708661417326 0.55118110236220474 0.55905511811023623 0.56692913385826771 0.57480314960629919 0.58267716535433067 0.59055118110236215 0.59842519685039375 0.60629921259842523 0.61417322834645671 0.62204724409448819 0.62992125984251968 0.63779527559055116 0.64566929133858264 0.65354330708661412 0.66141732283464572 0.6692913385826772 0.67716535433070868 0.68503937007874016 0.69291338582677164 0.70078740157480313 0.70866141732283461 0.71653543307086609 0.72440944881889768 0.73228346456692917 0.74015748031496065 0.74803149606299213 0.75590551181102361 0.76377952755905509 0.77165354330708658 0.77952755905511806 0.78740157480314965 0.79527559055118113 0.80314960629921262 0.8110236220472441 0.81889763779527558 0.82677165354330706 0.83464566929133854 0.84251968503937003 0.85039370078740162 0.8582677165354331 0.86614173228346458 0.87401574803149606 0.88188976377952755 0.88976377952755903 0.89763779527559051 0.90551181102362199 0.91338582677165359 0.92125984251968507 0.92913385826771655 0.93700787401574803 0.94488188976377951 0.952755905511811 0.96062992125984248 0.96850393700787396 0.97637795275590555 0.98425196850393704 0.99212598425196852 1
        </DataArray>
      </PointData>
      <CellData Scalars="P">
        <DataArray type="Float32" Name="P" NumberOfComponents="1">
          0.02597797904256046 0.1988254028054193 0.48224057086287025 0.89320570847627356 1.3729064759784451 1.8678091013953075 2.2998169933700159 2.7165494833327961 3.1425412512856727 3.5849455751905901 4.0551428785385921 4.5567095980223051 5.090335265280169 5.6556510639228019 6.2528374803237412 6.8801579845921825 7.5366785809742325 8.2158247203682677 8.9323095243708828 9.6939301719039168 10.505851689844494 11.356374766435124 12.261329153358455 13.216461509759826 14.197137874161902 15.190105555416483 16.203937945927567 17.200635259470054 18.164426368465556 19.079702434924346 19.956208003848772 20.761158775246617 21.484319618778002 22.144200085898234 22.73571693693609 23.249328411544063 23.662151510576848 23.995448704940905 24.256267432617481 24.452768587255655 24.595202614117508 24.697852134824135 24.755500132213733 24.773815876083376 24.763772226822031 24.731529325348038 24.692341931988793 24.663783473725424 24.66783778502187 24.700711474508903 24.803069871428786 24.959995647733564 25.220499267237955 25.59646424982677 26.054387512655836 26.646076207075897 27.320729272748427 28.133583089893705 29.077222853756773 30.067938823195558 31.141479273963579 32.209213765306174 33.28697422975825 34.268000102848283 35.134784921787038 35.751416541268767 36.032038746064998 35.912877197800853 35.418299037123923 34.575450294371393 33.420153720981524 32.058420466622962 30.570860645922796 29.161260139410128 27.963189199184889 27.030838632476321 26.366702677064414 25.941861092052214 25.712560855174864 25.62848981307847 25.642882179863065 25.715694961553471 25.814779447345771 25.915776873273717 26.001288247721671 26.059778767139907 26.084542897904438 26.073650040401851 26.02813278583881 25.951337997075289 25.84657026250736 25.712401645203094 25.547581811436597 25.351443616041351 25.123327168303035 24.862010263687289 24.565207408846032 24.229248811429287 23.848393732373509 23.416503923499931 22.927473821515409 22.388851004146993 21.798963548878241 21.174085898036601 20.537439241548277 19.951480738691117 19.453207269855127 19.133425703390085 19.034762503434827 19.240420195239039 19.739149375649177 20.535891261960849 21.494965709890529 22.459990892603667 23.249595143735707 23.633354083179444 23.458313311188519 22.625585919318628 21.046074157201843 18.689633548147874 15.424203206479675 11.373743451916118 6.0663700359509889 4.3059505336876542 2.6526502572826298 1.1271615057426383 -0.027115191674116575
        </DataArray>
      </CellData>
      <Points>
        <DataArray type="Float32" NumberOfComponents="3" format="ascii">
          -32.429448251943626 10.312446635355712 0
          -32.423200798050253 10.317240947278917 0
          -32.416766215121214 10.321781475670955 0
          -32.410138161286504 10.326035157338987 0
          -32.403304809592399 10.329951204533772 0
          -32.39626788540545 10.333489212593065 0
          -32.389035286162496 10.336608747374605 0
          -32.381628241649679 10.339287518031773 0
          -32.374075338784657 10.341521830078468 0
          -32.366404629675031 10.343309939744222 0
          -32.358643931086121 10.344654370396247 0
          -32.350819574629483 10.345556795736313 0
          -32.342957052295425 10.346020237299241 0
          -32.335080987089299 10.346048964898948 0
          -32.327215108882363 10.345648421963851 0
          -32.319382274717263 10.344824732843847 0
          -32.311604420452291 10.343585364364728 0
          -32.303902558895984 10.341938646052952 0
          -32.296295878333538 10.339897067805589 0
          -32.288803162845035 10.337470524043898 0
          -32.28144232790914 10.334669405362224 0
          -32.274230628838851 10.331504156817392 0
          -32.267182459917187 10.327989911141279 0
          -32.260313237225837 10.324137693480138 0
          -32.253637551973384 10.31995915222091 0
          -32.247166772259625 10.315469928144683 0
          -32.240910496289288 10.310686390158253 0
          -32.234880655840513 10.305620490422337 0
          -32.229084162934626 10.300289258337431 0
          -32.223526520968392 10.294709563822074 0
          -32.218210779435225 10.288899036144707 0
          -32.213142900003525 10.282871193472385 0
          -32.20832255487759 10.276643716632258 0
          -32.203746450091842 10.270234713676905 0
          -32.199414991893732 10.263657984402064 0
          -32.195326899168222 10.256927365788572 0
          -32.191479031659554 10.25005666972446 0
          -32.18785892845473 10.24306337413533 0
          -32.184459004786355 10.235960513517355 0
          -32.18126968709781 10.228760711677685 0
          -32.178279375896132 10.221476088844904 0
          -32.175474688410901 10.214118083615414 0
          -32.172849771776654 10.206694121698083 0
          -32.170388104180397 10.199214514329126 0
          -32.168071406297386 10.191688808433844 0
          -32.165879529412045 10.184125865399865 0
          -32.163801077429184 10.176531019232762 0
          -32.161812668717168 10.168912145842208 0
          -32.15988886519564 10.161276735627032 0
          -32.158002321714477 10.153632053793316 0
          -32.156136061999362 10.145982400082458 0
          -32.154259992730765 10.13833513499336 0
          -32.152355161787646 10.130694953766554 0
          -32.150389034195562 10.12307026615108 0
          -32.148329310550324 10.115470254318277 0
          -32.146155125497735 10.107902094525116 0
          -32.143831771666299 10.100378263284487 0
          -32.141338483018835 10.092908873458006 0
          -32.138640698633985 10.085510704374933 0
          -32.135704496066076 10.078203671439923 0
          -32.132511949297836 10.071004711902708 0
          -32.12903227206565 10.063939808603774 0
          -32.125250416439215 10.05703167305747 0
          -32.121140794436208 10.050313071177086 0
          -32.116695026147433 10.043811729165338 0
          -32.111895630345771 10.037566600874412 0
          -32.106743499954241 10.031608874562705 0
          -32.1012445416739 10.025969457446873 0
          -32.095421248042278 10.020665425187461 0
          -32.08928803535423 10.015722894729628 0
          -32.082863328952591 10.011165589435818 0
          -32.076168888581812 10.007014551246854 0
          -32.069238678197188 10.003270285575326 0
          -32.062096913094287 9.9999470775473771 0
          -32.054769281123058 9.9970578329860977 0
          -32.047287761857568 9.9945953589588559 0
          -32.039681401285989 9.9925516958700626 0
          -32.031976440365135 9.9909194153554495 0
          -32.024196483066895 9.9896941192986972 0
          -32.016363971060343 9.9888696575830043 0
          -32.008499947695974 9.9884402684477003 0
          -32.000624346413801 9.988400286836173 0
          -31.992756170120281 9.9887438449437553 0
          -31.984913576731511 9.9894646072332112 0
          -31.977113893513092 9.9905555733850946 0
          -31.969373582240728 9.9920089413490665 0
          -31.961708175280563 9.993816036863004 0
          -31.95413211309906 9.9959669974164864 0
          -31.946658812052146 9.9984514189271749 0
          -31.939300543697001 10.001258132052762 0
          -31.932068387909432 10.004375309474959 0
          -31.924973518577804 10.007793318555214 0
          -31.918024801425787 10.011499302912966 0
          -31.911229814547905 10.015480021871928 0
          -31.904594816826009 10.019721920014728 0
          -31.898124718677614 10.024211195275516 0
          -31.891823050938228 10.028933859561821 0
          -31.885691923771045 10.033875783628496 0
          -31.879731965981389 10.039022719744969 0
          -31.873942493647299 10.044360578850508 0
          -31.868320874877767 10.049874814414412 0
          -31.862862576130489 10.055550642656401 0
          -31.857558242144812 10.061370501937189 0
          -31.852398968380331 10.067319227145067 0
          -31.847372941691216 10.073380850833873 0
          -31.842465918214629 10.079539116602241 0
          -31.837657223827257 10.085774386469444 0
          -31.832926168192074 10.092068703229318 0
          -31.828246267895189 10.098401097236694 0
          -31.823591505586272 10.104751960486956 0
          -31.818931069443785 10.111098649340301 0
          -31.814236588394017 10.117420207641173 0
          -31.809476813849496 10.123692784843637 0
          -31.804626459336252 10.129895645028604 0
          -31.799663958775657 10.136009239922849 0
          -31.794570144531061 10.14201397568668 0
          -31.789336372622593 10.147897259957222 0
          -31.783954892200132 10.153645906050825 0
          -31.778426303542677 10.159253405728927 0
          -31.772746879925471 10.164708295680677 0
          -31.76691504865601 10.170000178895634 0
          -31.760923462860411 10.17511077187921 0
          -31.754772148033055 10.180028288348387 0
          -31.748443677478747 10.184716051693059 0
          -31.742065715834023 10.189336619360965 0
          -31.735640304384155 10.193891384967616 0
          -31.729161414598035 10.198370228543483 0
          -31.722613166525317 10.202747597018334 0
        </DataArray>
      </Points>
      <Cells>
        <DataArray type="Int32" Name="connectivity" format="ascii">
          0 1 1 2 2 3 3 4 4 5 5 6 6 7 7 8 8 9 9 10 10 11 11 12 12 13 13 14 14 15 15 16 16 17 17 18 18 19 19 20 20 21 21 22 22 23 23 24 24 25 25 26 26 27 27 28 28 29 29 30 30 31 31 32 32 33 33 34 34 35 35 36 36 37 37 38 38 39 39 40 40 41 41 42 42 43 43 44 44 45 45 46 46 47 47 48 48 49 49 50 50 51 51 52 52 53 53 54 54 55 55 56 56 57 57 58 58 59 59 60 60 61 61 62 62 63 63 64 64 65 65 66 66 67 67 68 68 69 69 70 70 71 71 72 72 73 73 74 74 75 75 76 76 77 77 78 78 79 79 80 80 81 81 82 82 83 83 84 84 85 85 86 86 87 87 88 88 89 89 90 90 91 91 92 92 93 93 94 94 95 95 96 96 97 97 98 98 99 99 100 100 101 101 102 102 103 103 104 104 105 105 106 106 107 107 108 108 109 109 110 110 111 111 112 112 113 113 114 114 115 115 116 116 117 117 118 118 119 119 120 120 121 121 122 122 123 123 124 124 125 125 126 126 127 
        </DataArray>
        <DataArray type="Int32" Name="offsets" format="ascii">
          2 4 6 8 10 12 14 16 18 20 22 24 26 28 30 32 34 36 38 40 42 44 46 48 50 52 54 56 58 60 62 64 66 68 70 72 74 76 78 80 82 84 86 88 90 92 94 96 98 100 102 104 106 108 110 112 114 116 118 120 122 124 126 128 130 132 134 136 138 140 142 144 146 148 150 152 154 156 158 160 162 164 166 168 170 172 174 176 178 180 182 184 186 188 190 192 194 196 198 200 202 204 206 208 210 212 214 216 218 220 222 224 226 228 230 232 234 236 238 240 242 244 246 248 250 252 254 
        </DataArray>
        <DataArray type="Int32" Name="types" format="ascii">
          3 3 3 3 3 3 3 3 3 3 3 3 3 3 3 3 3 3 3 3 3 3 3 3 3 3 3 3 3 3 3 3 3 3 3 3 3 3 3 3 3 3 3 3 3 3 3 3 3 3 3 3 3 3 3 3 3 3 3 3 3 3 3 3 3 3 3 3 3 3 3 3 3 3 3 3 3 3 3 3 3 3 3 3 3 3 3 3 3 3 3 3 3 3 3 3 3 3 3 3 3 3 3 3 3 3 3 3 3 3 3 3 3 3 3 3 3 3 3 3 3 3 3 3 3 3 3         </DataArray>
      </Cells>
    </Piece>
  </UnstructuredGrid>
</VTKFile>
<!-- DATA


-->
