<?xml version="1.0"?>
<VTKFile type="UnstructuredGrid" version="0.1" byte_order="LittleEndian">
  <UnstructuredGrid>
    <Piece NumberOfPoints="128" NumberOfCells="127">
      <PointData Scalars="u">
        <DataArray type="Float32" Name="Y" NumberOfComponents="2">

0 0
0.0077358865752327026 -0.011244584938339602
0.013879637337908255 -0.037092796470032906
0.024072389659322145 -0.071277133746206367
0.036523318392130633 -0.11011528917819401
0.049212100521039061 -0.15036251019150251
0.060165026311208285 -0.18908259891786097
0.067702111531434045 -0.22353534508490633
0.070652406299454323 -0.25110497934820736
0.068531309417684649 -0.26928802051762885
0.061668935761615674 -0.2757499864417321
0.05127452971198742 -0.26844923747019639
0.039420765116908153 -0.24581363616075458
0.028935283040950208 -0.20694340526915014
0.023195726595537269 -0.15180390875341124
0.025838076097702865 -0.081367676825254351
0.040403890903305734 0.002332057957910522
0.069966513502268193 0.096263015817022526
0.11678542786188233 0.19657952747802837
0.18203866126952314 0.29891947729190865
0.26567416153798995 0.39877921467203747
0.36640372105139296 0.49191815637346281
0.48184075677642763 0.57473898257226785
0.60876088347856905 0.6445939220753184
0.74344645805224985 0.69998134441060234
0.88206648514976849 0.74061636523554231
1.0210426660506249 0.76738003148180778
1.1573599131750822 0.78216969026452954
1.2887926230060425 0.78768536652577659
1.4140329091432675 0.78719207894141108
1.5327205242798896 0.78429634768794232
1.645383902341196 0.78276817951557232
1.7533064087862407 0.78642952226392726
1.8583315053239005 0.79911837003660713
1.9626161383256373 0.82472558014906239
2.0683350068455786 0.86728947590193162
2.1773317216872612 0.93112124127115681
2.2907088767595014 1.0209214544288279
2.408350687709027 1.1418346201701277
2.528382293667593 1.2993750327038065
2.6465920915005525 1.4991463917056631
2.7558795474463103 1.7462746424095292
2.8458400533865738 2.0444868997101513
2.902654595760275 2.3948097870382701
2.9095012439421994 2.7939384974309811
2.8477237420561345 3.2324479651975104
2.6989474112963814 3.693170107292274
2.4481915885530032 4.1502131132017688
2.0877753200001221 4.5691890853723036
1.6214740178152383 4.90916395538882
1.0680449602908777 5.1265764579955526
0.62057833639500126 5.1593158696686539
0.4016566727319914 5.0557541396878474
0.19536499932417978 4.8640162560903804
0.013180118618675766 4.6002230199066485
-0.13745300229125401 4.2797382048077885
-0.25265966512179749 3.9167585865074388
-0.33155011317018335 3.5240138638117169
-0.37558779512916807 3.1125985341116036
-0.38797033061965569 2.6919305415858301
-0.37306337530665662 2.2698152300755035
-0.33591048489340053 1.8525857965677859
-0.28182830303383583 1.445290553419442
-0.21608648938367342 1.0519004559458078
-0.14366557020503226 0.6755155539581279
-0.069082710944761649 0.31855485065402722
0.0037255201228833796 -0.017080403610075769
0.0714737939152673 -0.32987517167440344
0.13156113900231253 -0.61860219331785071
0.1820740024917003 -0.88225510778134442
0.22176518484825034 -1.1200095531449763
0.25001331999488957 -1.3312073582062207
0.26676667276759181 -1.5153582539416641
0.27247448697867976 -1.6721533496589867
0.26800887939009566 -1.8014848510022905
0.25458024471835544 -1.9034670599102992
0.2336492087488718 -1.9784545103674698
0.20683824024132857 -2.0270540767641609
0.17584602537563099 -2.0501289597587222
0.14236756557315103 -2.0487935235254056
0.10802265562057448 -2.0243989491346848
0.074294938929057266 -1.9785105140435257
0.042483150033076067 -1.9128779573538313
0.013665487775024325 -1.8294008164612945
-0.011322628445408066 -1.730090818006734
-0.031897827574098599 -1.617033391497855
-0.047726071829037736 -1.4923501821380101
-0.058709417868136396 -1.358164116760544
-0.064964050789946742 -1.2165681751844872
-0.066791585022944577 -1.0695985897552533
-0.06464569201882997 -0.91921278322774791
-0.059096065864673905 -0.76727199466740981
-0.050791596105021604 -0.61552825832603775
-0.040424407062926729 -0.46561520321815608
-0.028696168348190967 -0.31904203228835526
-0.016287802703434311 -0.17719001167741105
-0.003833432618256321 -0.041310838220821343
0.0081008707575092598 0.087473661278636858
0.019033233964442325 0.2081709319349655
0.028576957685039012 0.31991650403290878
0.036446467121332773 0.42197241244055717
0.042458556981697163 0.51372532180630082
0.046529394971386535 0.59468439083691482
0.048667855561411198 0.66447887564034513
0.048965828110384788 0.72285547166739028
0.047586181595797541 0.76967542227647345
0.044749073682332149 0.80491147263836305
0.040717269313275427 0.82864481174418192
0.03578108818533441 0.8410622129789711
0.030243537858107669 0.84245364528509947
0.0244061177030073 0.83321067330517362
0.018555705219641776 0.81382598839565079
0.012952867867421626 0.78489440696868062
0.0078218855663671587 0.74711563400350844
0.003342724635081608 0.70129901520146576
-0.00035482715864077109 0.64837039009927755
-0.0031946759111447227 0.58938101076286598
-0.0051554187540867498 0.52551830791289433
-0.0062686845509468169 0.45811807113543945
-0.006614736755011532 0.38867736634800415
-0.0063153588656859319 0.31886724801422556
-0.0055242088335448573 0.25054404442783901
-0.0044150757103751156 0.18575771363164081
-0.0031688101185038632 0.1267555006538002
-0.0019601283844725248 0.075978892349948438
-0.00094599047649625127 0.036051684497150328
-0.00025778009153034915 0.0097568659520122086
0 0

        </DataArray>
        <DataArray type="Float32" Name="W" NumberOfComponents="2">

-0.41347771720000437 0.14644963142683876
-0.40591977651330347 0.14865822104880536
-0.39840779122785935 0.15101837338301552
-0.3909262304715142 0.15347325077015314
-0.38345696304479904 0.1559652738109053
-0.37598077954105674 0.15843646877199846
-0.36847896942892572 0.16082874556483234
-0.36093488522350636 0.16308417985858831
-0.35333542738056239 0.16514536980222341
-0.34567238327080074 0.16695592612980428
-0.33794355288287864 0.16846113509973482
-0.33015359485002244 0.16960880839444581
-0.32231453133307714 0.17035030511501406
-0.31444586123561624 0.17064168137239252
-0.30657424929152405 0.17044489624454701
-0.29873278352662153 0.16972898270250855
-0.29095982368729445 0.16847108173537981
-0.28329749528182491 0.16665723948517036
-0.27578991380880302 0.16428288129876556
-0.26848124730174305 0.16135290190890286
-0.26141373893566294 0.15788134439398271
-0.25462581298004772 0.15389067778154392
-0.24815037656716635 0.14941071928340471
-0.24201340819725881 0.14447727766863777
-0.23623289478064297 0.13913061579472094
-0.23081814636960404 0.13341384102276677
-0.22576948574599237 0.12737133205039541
-0.22107828234779967 0.12104730101278777
-0.21672727926796925 0.11448457297275673
-0.2126911496446855 0.10772364406110596
-0.20893721490282582 0.10080205739092662
-0.2054262612569111 0.093754114822006504
-0.2021134012549301 0.086610924322632302
-0.19894894221309689 0.07940076785905692
-0.19587924138827398 0.072149763429876099
-0.19284754699439288 0.064882786364276926
-0.1897948432043069 0.057624608115095295
-0.18666073473587036 0.050401203966685834
-0.18338442115171535 0.043241172682978932
-0.17990582107024933 0.036177199584607203
-0.1761669101565497 0.029247478702149936
-0.17211333153798072 0.022496989131733289
-0.16769632009114041 0.015978496464941424
-0.16287494949119455 0.0097531250918760758
-0.15761866006806119 0.0038903268293953622
-0.15190995528089921 -0.0015329357118011046
-0.14574706779470889 -0.0064339550304309909
-0.139146301805222 -0.010727103341610303
-0.13214367371268079 -0.014327723831847744
-0.12479542400280824 -0.017156946148953325
-0.11717698927253936 -0.019147096857069962
-0.10938013070972524 -0.020247183522017372
-0.10154480412327462 -0.021027385823364712
-0.093684582597828733 -0.021494125748515738
-0.085812255958779129 -0.021659292183690625
-0.077939119239761726 -0.021539241359898494
-0.070074511133062706 -0.02115384425680435
-0.062225573799720123 -0.020525606380618761
-0.054397197744317484 -0.019678878517512516
-0.046592112583691926 -0.018639168882246298
-0.038811085327771347 -0.017432559221764048
-0.03105319107173176 -0.016085220905005086
-0.023316125711447932 -0.014623022287792895
-0.015596535584799429 -0.01307121574024468
-0.0078903441955006943 -0.011454191468396368
-0.00019306100732972492 -0.0097952853290655308
0.0074999384923362415 -0.0081166288662118842
0.015193168727521002 -0.0064390314444642636
0.022890830346396888 -0.0047818863245029488
0.03059664896473327 -0.0031630945775720401
0.038313756529598349 -0.0015990026931490388
0.04604461399717516 -0.00010435146842129514
0.053790972812438678 0.0013077648000255628
0.061553871706154728 0.0026259287156955328
0.069333664552802446 0.0038404189368534576
0.077130074446847524 0.0049432168634389968
0.084942268752442263 0.0059279995538636023
0.092768949667570613 0.0067901177469847198
0.10060845482246401 0.0075265582383300103
0.10845886260336501 0.0081358903633225281
0.1163180972475496 0.0086181969075523907
0.12418402927509983 0.0089749903336135087
0.13205456747871677 0.0092091157332664045
0.13992773944849904 0.0093246423424161121
0.14780175842275159 0.0093267457681965212
0.15567507508567921 0.0092215832600964897
0.1635464137372982 0.0090161644114518692
0.17141479300394499 0.0087182196156575589
0.17927953191026139 0.0083360684431315456
0.18714024267464346 0.0078784898752912377
0.1949968120076101 0.0073545960572170242
0.20284937298228989 0.0067737109368645326
0.21069826971127609 0.0061452548679980998
0.21854401711324742 0.0054786359841083095
0.22638725799901985 0.0047831489136758703
0.23422871956587127 0.004067881210000214
0.2420691711783316 0.0033416277131841652
0.24990938505081484 0.002612812945421259
0.25775010114971264 0.0018894215581734559
0.26559199731605898 0.001178936794113739
0.27343566528933078 0.00048828689022942066
0.28128159300131284 -0.00017620067591914246
0.28913015321721108 -0.00080883721301603848
0.29698159833820864 -0.0014046032482796537
0.30483606095212346 -0.0019591715137900331
0.31269355953122546 -0.0024689226516212389
0.32055400853097216 -0.0029309538170146014
0.32841723204076234 -0.0033430803684204573
0.33628298007639967 -0.0037038308339793148
0.34415094658094547 -0.0040124353317094619
0.35202078821215715 -0.0042688075914998165
0.35989214303630868 -0.0044735206780978642
0.36776464831530753 -0.0046277764441753017
0.37563795666241767 -0.0047333686515845779
0.3835117499479736 -0.0047926395894818188
0.39138575045747176 -0.0048084298946963547
0.39925972893843115 -0.0047840211494663094
0.40713350931809594 -0.0047230707035909782
0.41500697003018899 -0.0046295380535062757
0.42288004205362661 -0.0045076020231124463
0.43075270393584947 -0.0043615679454699031
0.43862497424189922 -0.0041957640572020203
0.44649690202728587 -0.0040144264059118273
0.45436855606274151 -0.0038215717525397911
0.46224001362117062 -0.00362085824190867
0.47011134964492662 -0.0034154340302512969
0.47798262701396743 -0.003207774609559416
0.48585388839970817 -0.0029995102619362678

        </DataArray>
        <DataArray type="Float32" Name="u" NumberOfComponents="1">
          0 0.007874015748031496 0.015748031496062992 0.023622047244094488 0.031496062992125984 0.03937007874015748 0.047244094488188976 0.055118110236220472 0.062992125984251968 0.070866141732283464 0.07874015748031496 0.086614173228346455 0.094488188976377951 0.10236220472440945 0.11023622047244094 0.11811023622047244 0.12598425196850394 0.13385826771653545 0.14173228346456693 0.14960629921259844 0.15748031496062992 0.16535433070866143 0.17322834645669291 0.18110236220472442 0.1889763779527559 0.19685039370078741 0.20472440944881889 0.2125984251968504 0.22047244094488189 0.2283464566929134 0.23622047244094488 0.24409448818897639 0.25196850393700787 0.25984251968503935 0.26771653543307089 0.27559055118110237 0.28346456692913385 0.29133858267716534 0.29921259842519687 0.30708661417322836 0.31496062992125984 0.32283464566929132 0.33070866141732286 0.33858267716535434 0.34645669291338582 0.3543307086614173 0.36220472440944884 0.37007874015748032 0.37795275590551181 0.38582677165354329 0.39370078740157483 0.40157480314960631 0.40944881889763779 0.41732283464566927 0.42519685039370081 0.43307086614173229 0.44094488188976377 0.44881889763779526 0.45669291338582679 0.46456692913385828 0.47244094488188976 0.48031496062992124 0.48818897637795278 0.49606299212598426 0.50393700787401574 0.51181102362204722 0.51968503937007871 0.52755905511811019 0.53543307086614178 0.54330708661417326 0.55118110236220474 0.55905511811023623 0.56692913385826771 0.57480314960629919 0.58267716535433067 0.59055118110236215 0.59842519685039375 0.60629921259842523 0.61417322834645671 0.62204724409448819 0.62992125984251968 0.63779527559055116 0.64566929133858264 0.65354330708661412 0.66141732283464572 0.6692913385826772 0.67716535433070868 0.68503937007874016 0.69291338582677164 0.70078740157480313 0.70866141732283461 0.71653543307086609 0.72440944881889768 0.73228346456692917 0.74015748031496065 0.74803149606299213 0.75590551181102361 0.76377952755905509 0.77165354330708658 0.77952755905511806 0.78740157480314965 0.79527559055118113 0.80314960629921262 0.8110236220472441 0.81889763779527558 0.82677165354330706 0.83464566929133854 0.84251968503937003 0.85039370078740162 0.8582677165354331 0.86614173228346458 0.87401574803149606 0.88188976377952755 0.88976377952755903 0.89763779527559051 0.90551181102362199 0.91338582677165359 0.92125984251968507 0.92913385826771655 0.93700787401574803 0.94488188976377951 0.952755905511811 0.96062992125984248 0.96850393700787396 0.97637795275590555 0.98425196850393704 0.99212598425196852 1
        </DataArray>
      </PointData>
      <CellData Scalars="P">
        <DataArray type="Float32" Name="P" NumberOfComponents="1">
          0.0036357118359993698 -0.031320345100795399 -0.069350853029047449 -0.083483936481895005 -0.058767842535614762 0.00839335394143635 0.11135707369823096 0.2347680182857223 0.35644671567601244 0.44958508298364125 0.48517195430228749 0.43454050720082393 0.27189439479728555 -0.023361146637686805 -0.4646729665618175 -1.0569610657425148 -1.7959545854389636 -2.6683280629005548 -3.6526410751752003 -4.720994238170956 -5.8412310200040496 -6.9794517217226613 -8.1025731129813146 -9.1806685092526905 -10.188856138708072 -11.108560886821587 -11.928045375375401 -12.642179887014748 -13.251487796651928 -13.760558136940741 -14.175957757523863 -14.503803795676353 -14.747177014206468 -14.903573501676474 -14.962611821912827 -14.904239187095188 -14.69771520111555 -14.301692686075135 -13.665753915909288 -12.733781750129532 -11.449524428950733 -9.76461679944018 -7.6491094033937443 -5.1041907555755017 -2.1762435179738264 1.0293321277136642 4.3368796402843541 7.4948660481905032 10.179218443046208 12.008555845978973 12.572900239535789 12.215012781715508 11.425166960123565 10.320845935235301 9.0148764944661099 7.6088265396801624 6.1892491559276479 4.8260517761252766 3.5723924245544967 2.4656133671958558 1.5288223191648229 0.7728226748807141 0.19817483239508776 -0.20276146761090519 -0.44389968722319861 -0.54366894397284193 -0.5234524503472856 -0.40622902988042375 -0.21541355053756628 0.026113552988903062 0.29679950940856148 0.57704697849853603 0.8496872294631227 1.1003086809752802 1.3174503313961041 1.4926699078786394 1.6204975806205852 1.6982876531640536 1.7259824804155106 1.7058046720857367 1.6418951126227128 1.5399152258101145 1.4066320708336117 1.2495042080107435 1.0762848391018616 0.89465660954065829 0.71190981509489859 0.53467277267818603 0.36869999195831521 0.21872070695455129 0.088347454473563014 -0.01995815644166897 -0.1048674661497392 -0.16612121863939644 -0.20442826373105175 -0.22133501838386258 -0.21907444340156607 -0.20040312899057081 -0.16843456535433132 -0.12647586445710091 -0.077874163763417381 -0.025877753661164175 0.02648429906544587 0.076501535815178198 0.1218592167396296 0.16069296349974826 0.19162165064607972 0.21375995595218181 0.2267124365345371 0.23055121539167889 0.22577936200737744 0.21328187252150466 0.19426586241913407 0.17019125989184858 0.14269302961167984 0.11349587520089358 0.084322580013287587 0.05679776140905151 0.032349926961884976 0.012116388984016914 -0.0031421869388072138 -0.013108145671038933 -0.017941742305733237 -0.018269402985873755 -0.015108044382142744 -0.0097074319331831305 -0.0032941637527886597
        </DataArray>
      </CellData>
      <Points>
        <DataArray type="Float32" NumberOfComponents="3" format="ascii">
          -0.41347771720000437 0.14644963142683876 0
          -0.40591977651330347 0.14865822104880536 0
          -0.39840779122785935 0.15101837338301552 0
          -0.3909262304715142 0.15347325077015314 0
          -0.38345696304479904 0.1559652738109053 0
          -0.37598077954105674 0.15843646877199846 0
          -0.36847896942892572 0.16082874556483234 0
          -0.36093488522350636 0.16308417985858831 0
          -0.35333542738056239 0.16514536980222341 0
          -0.34567238327080074 0.16695592612980428 0
          -0.33794355288287864 0.16846113509973482 0
          -0.33015359485002244 0.16960880839444581 0
          -0.32231453133307714 0.17035030511501406 0
          -0.31444586123561624 0.17064168137239252 0
          -0.30657424929152405 0.17044489624454701 0
          -0.29873278352662153 0.16972898270250855 0
          -0.29095982368729445 0.16847108173537981 0
          -0.28329749528182491 0.16665723948517036 0
          -0.27578991380880302 0.16428288129876556 0
          -0.26848124730174305 0.16135290190890286 0
          -0.26141373893566294 0.15788134439398271 0
          -0.25462581298004772 0.15389067778154392 0
          -0.24815037656716635 0.14941071928340471 0
          -0.24201340819725881 0.14447727766863777 0
          -0.23623289478064297 0.13913061579472094 0
          -0.23081814636960404 0.13341384102276677 0
          -0.22576948574599237 0.12737133205039541 0
          -0.22107828234779967 0.12104730101278777 0
          -0.21672727926796925 0.11448457297275673 0
          -0.2126911496446855 0.10772364406110596 0
          -0.20893721490282582 0.10080205739092662 0
          -0.2054262612569111 0.093754114822006504 0
          -0.2021134012549301 0.086610924322632302 0
          -0.19894894221309689 0.07940076785905692 0
          -0.19587924138827398 0.072149763429876099 0
          -0.19284754699439288 0.064882786364276926 0
          -0.1897948432043069 0.057624608115095295 0
          -0.18666073473587036 0.050401203966685834 0
          -0.18338442115171535 0.043241172682978932 0
          -0.17990582107024933 0.036177199584607203 0
          -0.1761669101565497 0.029247478702149936 0
          -0.17211333153798072 0.022496989131733289 0
          -0.16769632009114041 0.015978496464941424 0
          -0.16287494949119455 0.0097531250918760758 0
          -0.15761866006806119 0.0038903268293953622 0
          -0.15190995528089921 -0.0015329357118011046 0
          -0.14574706779470889 -0.0064339550304309909 0
          -0.139146301805222 -0.010727103341610303 0
          -0.13214367371268079 -0.014327723831847744 0
          -0.12479542400280824 -0.017156946148953325 0
          -0.11717698927253936 -0.019147096857069962 0
          -0.10938013070972524 -0.020247183522017372 0
          -0.10154480412327462 -0.021027385823364712 0
          -0.093684582597828733 -0.021494125748515738 0
          -0.085812255958779129 -0.021659292183690625 0
          -0.077939119239761726 -0.021539241359898494 0
          -0.070074511133062706 -0.02115384425680435 0
          -0.062225573799720123 -0.020525606380618761 0
          -0.054397197744317484 -0.019678878517512516 0
          -0.046592112583691926 -0.018639168882246298 0
          -0.038811085327771347 -0.017432559221764048 0
          -0.03105319107173176 -0.016085220905005086 0
          -0.023316125711447932 -0.014623022287792895 0
          -0.015596535584799429 -0.01307121574024468 0
          -0.0078903441955006943 -0.011454191468396368 0
          -0.00019306100732972492 -0.0097952853290655308 0
          0.0074999384923362415 -0.0081166288662118842 0
          0.015193168727521002 -0.0064390314444642636 0
          0.022890830346396888 -0.0047818863245029488 0
          0.03059664896473327 -0.0031630945775720401 0
          0.038313756529598349 -0.0015990026931490388 0
          0.04604461399717516 -0.00010435146842129514 0
          0.053790972812438678 0.0013077648000255628 0
          0.061553871706154728 0.0026259287156955328 0
          0.069333664552802446 0.0038404189368534576 0
          0.077130074446847524 0.0049432168634389968 0
          0.084942268752442263 0.0059279995538636023 0
          0.092768949667570613 0.0067901177469847198 0
          0.10060845482246401 0.0075265582383300103 0
          0.10845886260336501 0.0081358903633225281 0
          0.1163180972475496 0.0086181969075523907 0
          0.12418402927509983 0.0089749903336135087 0
          0.13205456747871677 0.0092091157332664045 0
          0.13992773944849904 0.0093246423424161121 0
          0.14780175842275159 0.0093267457681965212 0
          0.15567507508567921 0.0092215832600964897 0
          0.1635464137372982 0.0090161644114518692 0
          0.17141479300394499 0.0087182196156575589 0
          0.17927953191026139 0.0083360684431315456 0
          0.18714024267464346 0.0078784898752912377 0
          0.1949968120076101 0.0073545960572170242 0
          0.20284937298228989 0.0067737109368645326 0
          0.21069826971127609 0.0061452548679980998 0
          0.21854401711324742 0.0054786359841083095 0
          0.22638725799901985 0.0047831489136758703 0
          0.23422871956587127 0.004067881210000214 0
          0.2420691711783316 0.0033416277131841652 0
          0.24990938505081484 0.002612812945421259 0
          0.25775010114971264 0.0018894215581734559 0
          0.26559199731605898 0.001178936794113739 0
          0.27343566528933078 0.00048828689022942066 0
          0.28128159300131284 -0.00017620067591914246 0
          0.28913015321721108 -0.00080883721301603848 0
          0.29698159833820864 -0.0014046032482796537 0
          0.30483606095212346 -0.0019591715137900331 0
          0.31269355953122546 -0.0024689226516212389 0
          0.32055400853097216 -0.0029309538170146014 0
          0.32841723204076234 -0.0033430803684204573 0
          0.33628298007639967 -0.0037038308339793148 0
          0.34415094658094547 -0.0040124353317094619 0
          0.35202078821215715 -0.0042688075914998165 0
          0.35989214303630868 -0.0044735206780978642 0
          0.36776464831530753 -0.0046277764441753017 0
          0.37563795666241767 -0.0047333686515845779 0
          0.3835117499479736 -0.0047926395894818188 0
          0.39138575045747176 -0.0048084298946963547 0
          0.39925972893843115 -0.0047840211494663094 0
          0.40713350931809594 -0.0047230707035909782 0
          0.41500697003018899 -0.0046295380535062757 0
          0.42288004205362661 -0.0045076020231124463 0
          0.43075270393584947 -0.0043615679454699031 0
          0.43862497424189922 -0.0041957640572020203 0
          0.44649690202728587 -0.0040144264059118273 0
          0.45436855606274151 -0.0038215717525397911 0
          0.46224001362117062 -0.00362085824190867 0
          0.47011134964492662 -0.0034154340302512969 0
          0.47798262701396743 -0.003207774609559416 0
          0.48585388839970817 -0.0029995102619362678 0
        </DataArray>
      </Points>
      <Cells>
        <DataArray type="Int32" Name="connectivity" format="ascii">
          0 1 1 2 2 3 3 4 4 5 5 6 6 7 7 8 8 9 9 10 10 11 11 12 12 13 13 14 14 15 15 16 16 17 17 18 18 19 19 20 20 21 21 22 22 23 23 24 24 25 25 26 26 27 27 28 28 29 29 30 30 31 31 32 32 33 33 34 34 35 35 36 36 37 37 38 38 39 39 40 40 41 41 42 42 43 43 44 44 45 45 46 46 47 47 48 48 49 49 50 50 51 51 52 52 53 53 54 54 55 55 56 56 57 57 58 58 59 59 60 60 61 61 62 62 63 63 64 64 65 65 66 66 67 67 68 68 69 69 70 70 71 71 72 72 73 73 74 74 75 75 76 76 77 77 78 78 79 79 80 80 81 81 82 82 83 83 84 84 85 85 86 86 87 87 88 88 89 89 90 90 91 91 92 92 93 93 94 94 95 95 96 96 97 97 98 98 99 99 100 100 101 101 102 102 103 103 104 104 105 105 106 106 107 107 108 108 109 109 110 110 111 111 112 112 113 113 114 114 115 115 116 116 117 117 118 118 119 119 120 120 121 121 122 122 123 123 124 124 125 125 126 126 127 
        </DataArray>
        <DataArray type="Int32" Name="offsets" format="ascii">
          2 4 6 8 10 12 14 16 18 20 22 24 26 28 30 32 34 36 38 40 42 44 46 48 50 52 54 56 58 60 62 64 66 68 70 72 74 76 78 80 82 84 86 88 90 92 94 96 98 100 102 104 106 108 110 112 114 116 118 120 122 124 126 128 130 132 134 136 138 140 142 144 146 148 150 152 154 156 158 160 162 164 166 168 170 172 174 176 178 180 182 184 186 188 190 192 194 196 198 200 202 204 206 208 210 212 214 216 218 220 222 224 226 228 230 232 234 236 238 240 242 244 246 248 250 252 254 
        </DataArray>
        <DataArray type="Int32" Name="types" format="ascii">
          3 3 3 3 3 3 3 3 3 3 3 3 3 3 3 3 3 3 3 3 3 3 3 3 3 3 3 3 3 3 3 3 3 3 3 3 3 3 3 3 3 3 3 3 3 3 3 3 3 3 3 3 3 3 3 3 3 3 3 3 3 3 3 3 3 3 3 3 3 3 3 3 3 3 3 3 3 3 3 3 3 3 3 3 3 3 3 3 3 3 3 3 3 3 3 3 3 3 3 3 3 3 3 3 3 3 3 3 3 3 3 3 3 3 3 3 3 3 3 3 3 3 3 3 3 3 3         </DataArray>
      </Cells>
    </Piece>
  </UnstructuredGrid>
</VTKFile>
<!-- DATA


-->
