<?xml version="1.0"?>
<VTKFile type="UnstructuredGrid" version="0.1" byte_order="LittleEndian">
  <UnstructuredGrid>
    <Piece NumberOfPoints="128" NumberOfCells="127">
      <PointData Scalars="u">
        <DataArray type="Float32" Name="Y" NumberOfComponents="2">

0 0
0.052163079976865971 -0.0075004268885844484
0.048029116789053729 -0.022503886978984866
0.03437494542503465 -0.052584285349821978
0.0084093564920733454 -0.094300510552189548
-0.031613115271141252 -0.14374708694944072
-0.086267779036813749 -0.19684843928593768
-0.15493906585365522 -0.24968061306065828
-0.2359049232155668 -0.29877875301501072
-0.3265125524949265 -0.34139207949984418
-0.4234196288481426 -0.3756571176107002
-0.52286815035575884 -0.40067261643164176
-0.62095702421064891 -0.41647347028894177
-0.71388406580609087 -0.42391356919780548
-0.79813689262306275 -0.42447698187852095
-0.87062325719351175 -0.42004224485087027
-0.9287425658077384 -0.41262582531524344
-0.97040983566980354 -0.40412891434232145
-0.99404986978201182 -0.3961079374126934
-0.99858230247652857 -0.38958498524176222
-0.98341726177123678 -0.38491089621369184
-0.94847695124797715 -0.38169153559990948
-0.8942509604304586 -0.37878677191412113
-0.82188323539181163 -0.3743909203621088
-0.73327729788889484 -0.36620164370230834
-0.63119481321272641 -0.35167988318685206
-0.5193128597032084 -0.32839497353617703
-0.40219972476862698 -0.29443610687545141
-0.28517055788985723 -0.24885457671723135
-0.17399524935424926 -0.19208342824080496
-0.074452637271158015 -0.12626680863150624
0.0082437791901166686 -0.055426211719535733
0.070087752879022219 0.014599587993267556
0.10889670251956894 0.076476788347217425
0.12479059050192637 0.12195338775637776
0.12042455635787161 0.14263069053039207
0.1008964765071708 0.13082087217576882
0.073303907484284947 0.080351102373741767
0.045990397878945447 -0.012826922753619121
0.027582331865804728 -0.15033168661396212
0.0259575210818755 -0.33140174871699507
0.047294648111410972 -0.55328039402507712
0.095327124784583425 -0.81184882340659958
0.1708748096625663 -1.1023774105704756
0.27166781656943484 -1.4202502523625316
0.39242489314920415 -1.7615331056195636
0.52511687627031511 -2.123290568470074
0.65933869009603008 -2.5036034224667469
0.78272909235896715 -2.9012809007124223
0.88140856716118343 -3.3152988818697979
0.94044275635389629 -3.7440221326835363
0.93657389523192269 -4.1861622464548889
0.86510690807170476 -4.6313120887379222
0.74423001424817969 -5.062196681415025
0.5716090462908705 -5.4666271436676501
0.34766208696610668 -5.8323634898632575
0.075781246025309126 -6.1476069041616537
-0.23763563782221006 -6.4015853288222289
-0.58337226146392285 -6.5851776766387546
-0.94980768273699157 -6.6915073089903263
-1.3235379313224385 -6.7164304333593821
-1.6901593567770794 -6.6588518978138707
-2.0351445884233224 -6.5208193793456903
-2.3447278959667051 -6.3073745181534351
-2.6067148292318856 -6.0261713514645772
-2.8111419119978134 -5.6869026113112948
-2.9507337415357373 -5.3005976120868326
-3.0211327744780276 -4.878867810116521
-3.0209060064028832 -4.4331764095075528
-2.951357642836673 -3.9741979104185203
-2.8161941228540539 -3.5113154641616697
-2.6210959115046957 -3.0522824333210292
-2.3732497368694694 -2.603053604956818
-2.0808873092056275 -2.1677740604902058
-1.752864682126122 -1.7489014149139024
-1.3983030178823321 -1.3474303310699807
-1.0262988590617983 -0.96318622303880164
-0.64570163346517939 -0.59515664601618479
-0.26494882162119271 -0.24183263989129555
0.10805483679895533 0.098462979474028822
0.46602881108803579 0.42727859486833353
0.80239230394605898 0.74578188613237695
1.1113341222112592 1.0545631440443817
1.3878830173180043 1.3535006152052191
1.6279800396355495 1.6416916714945544
1.8285500700221853 1.9174505761401612
1.9875660504417032 2.1783704234527543
2.1040969820263382 2.4214434291035589
2.1783298075158215 2.6432302863320536
2.2115559908561724 2.8400660767358334
2.2061158881127922 3.0082876297609586
2.1652975910185668 3.1444656751489815
2.0931913451141693 3.2456249557958938
1.9945052896261821 3.3094368262936831
1.8743524890038057 3.3343716893692847
1.73802243891735 3.3198026240721643
1.5907520110644002 3.266056247691441
1.4375109530419081 3.1744116356096499
1.2828156334241911 3.0470524035450492
1.1305819886513411 2.886980339369849
0.98402500765295176 2.697900939930407
0.84560806992615889 2.4840917589050511
0.71704149433026232 2.2502637142596424
0.59932613186553763 2.0014237175610301
0.49283499175088352 1.742744559542813
0.3974238400416899 1.479445342316837
0.31256046224393697 1.2166832868209998
0.23746177536485258 0.9594557866455401
0.1712281254254448 0.71251033894999272
0.11296483414145551 0.48025954843023683
0.061882313269607685 0.26669873390268661
0.017367813726852921 0.075324621481401788
-0.020975902613603079 -0.090945052911042754
-0.053327044060598301 -0.22984977084532787
-0.079675546656842622 -0.33985978334878642
-0.099884152760341252 -0.42024167666691153
-0.11377290124378912 -0.47111242863502906
-0.12121761321097249 -0.49347883629182443
-0.12225122599129394 -0.48926009995155134
-0.11715617439019879 -0.46129251522200121
-0.10653665771958529 -0.41331634257990552
-0.09136165474957933 -0.34994568882734661
-0.072972908868869632 -0.27662242710029356
-0.053056608514258009 -0.19955474140702933
-0.033582810306402471 -0.12563993956696448
-0.016722357053070357 -0.062370043020511023
-0.0047565965925415246 -0.017717743302690721
0 0

        </DataArray>
        <DataArray type="Float32" Name="W" NumberOfComponents="2">

-2.2522456373559856 1.0834504370074538
-2.2445234452803962 1.0819110928376938
-2.2369457406932773 1.079770942452829
-2.2295597908171407 1.0770415495512764
-2.2224101995045409 1.0737422847812665
-2.2155373370753844 1.0698996941833956
-2.2089759272082237 1.0655465856821345
-2.2027538558394633 1.0607208865009858
-2.1968912510753293 1.0554643397010306
-2.1913998640335444 1.0498211182882933
-2.1862827600714705 1.0438364396750273
-2.1815343099651119 1.037555261474187
-2.177140453172389 1.0310211320280012
-2.1730791919637724 1.0242752566484394
-2.1693212670781357 1.0173558246231096
-2.1658309631912154 1.0102976241718589
-2.1625669957286227 1.0031319542675925
-2.1594834386413737 0.9958868248682593
-2.156530664396644 0.98858742156441481
-2.1536562809733373 0.98125679738689897
-2.1508060642747391 0.97391674356935498
-2.1479248962655237 0.96658878213822352
-2.144957727642872 0.95929521590525557
-2.1418505875622729 0.95206016546156613
-2.13855166082711 0.94491051812720617
-2.1350124444631406 0.93787671097851921
-2.1311889807881936 0.93099327008016619
-2.1270431437705888 0.92429903239051281
-2.1225439313819283 0.91783698724412377
-2.1176686915422405 0.91165369246247685
-2.112404186850581 0.90579824694908484
-2.1067473880049365 0.90032083675729979
-2.1007058821572069 0.89527091294477856
-2.0942977941530518 0.89069510285547637
-2.0875511475549962 0.88663499576214777
-2.0805026375920326 0.88312497199896278
-2.0731958453901078 0.88019025512068594
-2.0656789845169654 0.87784535462134172
-2.0580023274967942 0.87609303134577488
-2.0502155018960178 0.87492386245243192
-2.0423648653969972 0.87431641542578764
-2.0344911635775595 0.87423797182589047
-2.026627644501656 0.87464568239654028
-2.0187987568670294 0.87548799512578879
-2.0110195024490509 0.87670618235163189
-2.0032954586372855 0.87823580291047698
-1.9956234410176217 0.88000796731315079
-1.9879927439421081 0.88195032180160715
-1.9803868796587691 0.88398772349393584
-1.9727857310850703 0.88604263655484083
-1.9651680344458038 0.88803533249927336
-1.9575141094265103 0.88988402179588111
-1.9498021135165948 0.89147316867334736
-1.9420364769791851 0.89277517348635571
-1.9342246936005607 0.89376332086898891
-1.9263774654757608 0.89441253545293631
-1.9185086771470516 0.89470014077752913
-1.9106351853379853 0.89460659086964445
-1.9027764223108268 0.89411613818257085
-1.8949538244527864 0.89321739918501186
-1.8871901117461372 0.89190378079461918
-1.879508456663749 0.89017373736461336
-1.871931591063116 0.88803083863439536
-1.8644809053970968 0.88548364279730729
-1.8571755951442903 0.88254538391198756
-1.8500319046673697 0.87923349731562073
-1.8430625094093873 0.87556901861388425
-1.8362760647742007 0.8715758997867824
-1.8296769359400145 0.86728028919529754
-1.8232651090187884 0.86270982078269365
-1.8170362719428017 0.85789295218630757
-1.8109820443036972 0.85285838292921801
-1.805090329588388 0.84763457367775352
-1.7993457608042658 0.84224937702981117
-1.7937302108892854 0.83672978052227487
-1.7882233418239748 0.83110175427564914
-1.7828031701712044 0.82539018935236508
-1.7774466310804775 0.81961890861543074
-1.772130126963148 0.81381072953784883
-1.7668300506208008 0.80798755779660203
-1.7615232753397931 0.80217049129480988
-1.7561876062831026 0.79637991619466886
-1.7508021884988323 0.79063557934191475
-1.7453478672147507 0.78495662488627116
-1.7398074960585082 0.77936158674859024
-1.7341661887176789 0.7738683326668202
-1.7284115096042152 0.76849395968224576
-1.7225335995400914 0.76325464490655925
-1.7165252334870398 0.75816545902843924
-1.7103818089623599 0.75324015306077563
-1.7041012659716539 0.74849093109639664
-1.6976839419065739 0.74392822317022012
-1.6911323676787779 0.73956047262301883
-1.6844510141161584 0.73539395161548393
-1.6776460000459346 0.73143261673516091
-1.6707247752695336 0.72767801414842248
-1.6636957925970379 0.72412924072307183
-1.6565681831438992 0.72078296427516475
-1.6493514481901657 0.71763350287276895
-1.64205517915109 0.71467296022505533
-1.6346888147772078 0.7118914118009303
-1.6272614418163205 0.70927713457939556
-1.61978164227859 0.70681687226811607
-1.6122573873946258 0.70449612739028544
-1.6046959755634937 0.70229947172203488
-1.5971040092294044 0.70021086701276203
-1.5894874038294682 0.69821398857490402
-1.581851420797739 0.69629254503518356
-1.5742007161241394 0.69443058817482817
-1.566539396141416 0.69261280727479935
-1.5588710730038802 0.69082480269668567
-1.5511989136505375 0.68905333359130805
-1.5435256778038799 0.68728653469443513
-1.5358537426064274 0.68551409722531609
-1.5281851136765794 0.68372740903817608
-1.5205214244904957 0.68191964946656591
-1.5128639278766167 0.68008583479545259
-1.5052134848610152 0.67822281100940007
-1.4975705569695221 0.67632919137206615
-1.4899352082692536 0.67440523743649117
-1.4823071228771931 0.67245268319496432
-1.4746856424165125 0.67047450318230484
-1.4670698260878012 0.66847462639977218
-1.4594585338506376 0.66645759891657075
-1.4518505309601226 0.66442819895933947
-1.4442446101031017 0.66239100927549543
-1.4366397259834607 0.66034995262418883
-1.4290351367594343 0.65830779746586632

        </DataArray>
        <DataArray type="Float32" Name="u" NumberOfComponents="1">
          0 0.007874015748031496 0.015748031496062992 0.023622047244094488 0.031496062992125984 0.03937007874015748 0.047244094488188976 0.055118110236220472 0.062992125984251968 0.070866141732283464 0.07874015748031496 0.086614173228346455 0.094488188976377951 0.10236220472440945 0.11023622047244094 0.11811023622047244 0.12598425196850394 0.13385826771653545 0.14173228346456693 0.14960629921259844 0.15748031496062992 0.16535433070866143 0.17322834645669291 0.18110236220472442 0.1889763779527559 0.19685039370078741 0.20472440944881889 0.2125984251968504 0.22047244094488189 0.2283464566929134 0.23622047244094488 0.24409448818897639 0.25196850393700787 0.25984251968503935 0.26771653543307089 0.27559055118110237 0.28346456692913385 0.29133858267716534 0.29921259842519687 0.30708661417322836 0.31496062992125984 0.32283464566929132 0.33070866141732286 0.33858267716535434 0.34645669291338582 0.3543307086614173 0.36220472440944884 0.37007874015748032 0.37795275590551181 0.38582677165354329 0.39370078740157483 0.40157480314960631 0.40944881889763779 0.41732283464566927 0.42519685039370081 0.43307086614173229 0.44094488188976377 0.44881889763779526 0.45669291338582679 0.46456692913385828 0.47244094488188976 0.48031496062992124 0.48818897637795278 0.49606299212598426 0.50393700787401574 0.51181102362204722 0.51968503937007871 0.52755905511811019 0.53543307086614178 0.54330708661417326 0.55118110236220474 0.55905511811023623 0.56692913385826771 0.57480314960629919 0.58267716535433067 0.59055118110236215 0.59842519685039375 0.60629921259842523 0.61417322834645671 0.62204724409448819 0.62992125984251968 0.63779527559055116 0.64566929133858264 0.65354330708661412 0.66141732283464572 0.6692913385826772 0.67716535433070868 0.68503937007874016 0.69291338582677164 0.70078740157480313 0.70866141732283461 0.71653543307086609 0.72440944881889768 0.73228346456692917 0.74015748031496065 0.74803149606299213 0.75590551181102361 0.76377952755905509 0.77165354330708658 0.77952755905511806 0.78740157480314965 0.79527559055118113 0.80314960629921262 0.8110236220472441 0.81889763779527558 0.82677165354330706 0.83464566929133854 0.84251968503937003 0.85039370078740162 0.8582677165354331 0.86614173228346458 0.87401574803149606 0.88188976377952755 0.88976377952755903 0.89763779527559051 0.90551181102362199 0.91338582677165359 0.92125984251968507 0.92913385826771655 0.93700787401574803 0.94488188976377951 0.952755905511811 0.96062992125984248 0.96850393700787396 0.97637795275590555 0.98425196850393704 0.99212598425196852 1
        </DataArray>
      </PointData>
      <CellData Scalars="P">
        <DataArray type="Float32" Name="P" NumberOfComponents="1">
          0.0042378760986378945 0.20577402081060081 0.58875554908938854 1.13486242222797 1.8194542744424158 2.6124847648201248 3.4798919835953699 4.3853568993675003 5.2922897105381494 6.1658875559836677 6.9751074002675653 7.694413795322248 8.3051892478587686 8.7967301103141988 9.166787556977134 9.4216458901666513 9.5757550133461518 9.6509483096035709 9.675281684604748 9.6815268366948466 9.7053464613511409 9.7831767512578871 9.9498489796115699 10.236001868196022 10.6653723024091 11.25210280235334 11.998264653688231 12.891855531675001 13.905575108871703 14.996693966459272 16.108292992626524 17.172050353405009 18.112589681255763 18.853190175225635 19.322427526653325 19.461108233138233 19.22872784525314 18.608666466286728 17.611450905587926 16.275650014279826 14.666284957636028 12.870966001671063 10.994245074143612 9.1508473746562551 7.4584924042434482 6.0309434912497952 4.9717692488023983 4.3691072564700901 4.2915351137066793 4.7850098298234292 5.8707479557893008 7.7436245740423848 9.7447925133343301 11.810890971045147 13.868538273485141 15.838322911700129 17.63941758183045 19.194500800811788 20.4346236084907 21.303638469310503 21.761824633367059 21.788404046058119 21.382741413872832 20.564149768021508 19.370360850970755 17.8548472767907 16.083282053445217 14.1294780748851 12.071161262853536 9.9859002196151003 7.9474530884100778 6.0227127627380943 4.2693487368389125 2.7341693702894316 1.4521698037759869 0.44619154976898878 -0.27290050330781668 -0.70562235347281754 -0.86294814545204168 -0.76513871892271346 -0.44038424136193194 0.076690304972964016 0.74661821692106756 1.5267494051199786 2.3729408324932484 3.2412419949335045 4.0895319317196996 4.8790572970261241 5.5758156947648221 6.151726683522984 6.5855359842644443 6.863407102921613 6.9791685719098036 6.9342032355460059 6.736986700661852 6.4023031173156326 5.9501856952614904 5.404644972016289 4.7922585794910759 4.1407015712223245 3.4772964247518221 2.8276573212327687 2.2144952315582422 1.6566397655374878 1.1683215537009832 0.75874570672594199 0.43197286531112994 0.18710947960455698 0.018793110196228681 -0.082058277794626849 -0.12728149365906261 -0.13035340290801056 -0.10520733726303115 -0.065073259986424159 -0.021439797491615866 0.016766643256176331 0.043703461217488394 0.056775849888171637 0.056419161952514216 0.045518240051501714 0.028529770667898087 0.010421330096055618 -0.004416945700125915 -0.013100957249065985 -0.014819646704852084 -0.010844518700674618 -0.0038149594765833684
        </DataArray>
      </CellData>
      <Points>
        <DataArray type="Float32" NumberOfComponents="3" format="ascii">
          -2.2522456373559856 1.0834504370074538 0
          -2.2445234452803962 1.0819110928376938 0
          -2.2369457406932773 1.079770942452829 0
          -2.2295597908171407 1.0770415495512764 0
          -2.2224101995045409 1.0737422847812665 0
          -2.2155373370753844 1.0698996941833956 0
          -2.2089759272082237 1.0655465856821345 0
          -2.2027538558394633 1.0607208865009858 0
          -2.1968912510753293 1.0554643397010306 0
          -2.1913998640335444 1.0498211182882933 0
          -2.1862827600714705 1.0438364396750273 0
          -2.1815343099651119 1.037555261474187 0
          -2.177140453172389 1.0310211320280012 0
          -2.1730791919637724 1.0242752566484394 0
          -2.1693212670781357 1.0173558246231096 0
          -2.1658309631912154 1.0102976241718589 0
          -2.1625669957286227 1.0031319542675925 0
          -2.1594834386413737 0.9958868248682593 0
          -2.156530664396644 0.98858742156441481 0
          -2.1536562809733373 0.98125679738689897 0
          -2.1508060642747391 0.97391674356935498 0
          -2.1479248962655237 0.96658878213822352 0
          -2.144957727642872 0.95929521590525557 0
          -2.1418505875622729 0.95206016546156613 0
          -2.13855166082711 0.94491051812720617 0
          -2.1350124444631406 0.93787671097851921 0
          -2.1311889807881936 0.93099327008016619 0
          -2.1270431437705888 0.92429903239051281 0
          -2.1225439313819283 0.91783698724412377 0
          -2.1176686915422405 0.91165369246247685 0
          -2.112404186850581 0.90579824694908484 0
          -2.1067473880049365 0.90032083675729979 0
          -2.1007058821572069 0.89527091294477856 0
          -2.0942977941530518 0.89069510285547637 0
          -2.0875511475549962 0.88663499576214777 0
          -2.0805026375920326 0.88312497199896278 0
          -2.0731958453901078 0.88019025512068594 0
          -2.0656789845169654 0.87784535462134172 0
          -2.0580023274967942 0.87609303134577488 0
          -2.0502155018960178 0.87492386245243192 0
          -2.0423648653969972 0.87431641542578764 0
          -2.0344911635775595 0.87423797182589047 0
          -2.026627644501656 0.87464568239654028 0
          -2.0187987568670294 0.87548799512578879 0
          -2.0110195024490509 0.87670618235163189 0
          -2.0032954586372855 0.87823580291047698 0
          -1.9956234410176217 0.88000796731315079 0
          -1.9879927439421081 0.88195032180160715 0
          -1.9803868796587691 0.88398772349393584 0
          -1.9727857310850703 0.88604263655484083 0
          -1.9651680344458038 0.88803533249927336 0
          -1.9575141094265103 0.88988402179588111 0
          -1.9498021135165948 0.89147316867334736 0
          -1.9420364769791851 0.89277517348635571 0
          -1.9342246936005607 0.89376332086898891 0
          -1.9263774654757608 0.89441253545293631 0
          -1.9185086771470516 0.89470014077752913 0
          -1.9106351853379853 0.89460659086964445 0
          -1.9027764223108268 0.89411613818257085 0
          -1.8949538244527864 0.89321739918501186 0
          -1.8871901117461372 0.89190378079461918 0
          -1.879508456663749 0.89017373736461336 0
          -1.871931591063116 0.88803083863439536 0
          -1.8644809053970968 0.88548364279730729 0
          -1.8571755951442903 0.88254538391198756 0
          -1.8500319046673697 0.87923349731562073 0
          -1.8430625094093873 0.87556901861388425 0
          -1.8362760647742007 0.8715758997867824 0
          -1.8296769359400145 0.86728028919529754 0
          -1.8232651090187884 0.86270982078269365 0
          -1.8170362719428017 0.85789295218630757 0
          -1.8109820443036972 0.85285838292921801 0
          -1.805090329588388 0.84763457367775352 0
          -1.7993457608042658 0.84224937702981117 0
          -1.7937302108892854 0.83672978052227487 0
          -1.7882233418239748 0.83110175427564914 0
          -1.7828031701712044 0.82539018935236508 0
          -1.7774466310804775 0.81961890861543074 0
          -1.772130126963148 0.81381072953784883 0
          -1.7668300506208008 0.80798755779660203 0
          -1.7615232753397931 0.80217049129480988 0
          -1.7561876062831026 0.79637991619466886 0
          -1.7508021884988323 0.79063557934191475 0
          -1.7453478672147507 0.78495662488627116 0
          -1.7398074960585082 0.77936158674859024 0
          -1.7341661887176789 0.7738683326668202 0
          -1.7284115096042152 0.76849395968224576 0
          -1.7225335995400914 0.76325464490655925 0
          -1.7165252334870398 0.75816545902843924 0
          -1.7103818089623599 0.75324015306077563 0
          -1.7041012659716539 0.74849093109639664 0
          -1.6976839419065739 0.74392822317022012 0
          -1.6911323676787779 0.73956047262301883 0
          -1.6844510141161584 0.73539395161548393 0
          -1.6776460000459346 0.73143261673516091 0
          -1.6707247752695336 0.72767801414842248 0
          -1.6636957925970379 0.72412924072307183 0
          -1.6565681831438992 0.72078296427516475 0
          -1.6493514481901657 0.71763350287276895 0
          -1.64205517915109 0.71467296022505533 0
          -1.6346888147772078 0.7118914118009303 0
          -1.6272614418163205 0.70927713457939556 0
          -1.61978164227859 0.70681687226811607 0
          -1.6122573873946258 0.70449612739028544 0
          -1.6046959755634937 0.70229947172203488 0
          -1.5971040092294044 0.70021086701276203 0
          -1.5894874038294682 0.69821398857490402 0
          -1.581851420797739 0.69629254503518356 0
          -1.5742007161241394 0.69443058817482817 0
          -1.566539396141416 0.69261280727479935 0
          -1.5588710730038802 0.69082480269668567 0
          -1.5511989136505375 0.68905333359130805 0
          -1.5435256778038799 0.68728653469443513 0
          -1.5358537426064274 0.68551409722531609 0
          -1.5281851136765794 0.68372740903817608 0
          -1.5205214244904957 0.68191964946656591 0
          -1.5128639278766167 0.68008583479545259 0
          -1.5052134848610152 0.67822281100940007 0
          -1.4975705569695221 0.67632919137206615 0
          -1.4899352082692536 0.67440523743649117 0
          -1.4823071228771931 0.67245268319496432 0
          -1.4746856424165125 0.67047450318230484 0
          -1.4670698260878012 0.66847462639977218 0
          -1.4594585338506376 0.66645759891657075 0
          -1.4518505309601226 0.66442819895933947 0
          -1.4442446101031017 0.66239100927549543 0
          -1.4366397259834607 0.66034995262418883 0
          -1.4290351367594343 0.65830779746586632 0
        </DataArray>
      </Points>
      <Cells>
        <DataArray type="Int32" Name="connectivity" format="ascii">
          0 1 1 2 2 3 3 4 4 5 5 6 6 7 7 8 8 9 9 10 10 11 11 12 12 13 13 14 14 15 15 16 16 17 17 18 18 19 19 20 20 21 21 22 22 23 23 24 24 25 25 26 26 27 27 28 28 29 29 30 30 31 31 32 32 33 33 34 34 35 35 36 36 37 37 38 38 39 39 40 40 41 41 42 42 43 43 44 44 45 45 46 46 47 47 48 48 49 49 50 50 51 51 52 52 53 53 54 54 55 55 56 56 57 57 58 58 59 59 60 60 61 61 62 62 63 63 64 64 65 65 66 66 67 67 68 68 69 69 70 70 71 71 72 72 73 73 74 74 75 75 76 76 77 77 78 78 79 79 80 80 81 81 82 82 83 83 84 84 85 85 86 86 87 87 88 88 89 89 90 90 91 91 92 92 93 93 94 94 95 95 96 96 97 97 98 98 99 99 100 100 101 101 102 102 103 103 104 104 105 105 106 106 107 107 108 108 109 109 110 110 111 111 112 112 113 113 114 114 115 115 116 116 117 117 118 118 119 119 120 120 121 121 122 122 123 123 124 124 125 125 126 126 127 
        </DataArray>
        <DataArray type="Int32" Name="offsets" format="ascii">
          2 4 6 8 10 12 14 16 18 20 22 24 26 28 30 32 34 36 38 40 42 44 46 48 50 52 54 56 58 60 62 64 66 68 70 72 74 76 78 80 82 84 86 88 90 92 94 96 98 100 102 104 106 108 110 112 114 116 118 120 122 124 126 128 130 132 134 136 138 140 142 144 146 148 150 152 154 156 158 160 162 164 166 168 170 172 174 176 178 180 182 184 186 188 190 192 194 196 198 200 202 204 206 208 210 212 214 216 218 220 222 224 226 228 230 232 234 236 238 240 242 244 246 248 250 252 254 
        </DataArray>
        <DataArray type="Int32" Name="types" format="ascii">
          3 3 3 3 3 3 3 3 3 3 3 3 3 3 3 3 3 3 3 3 3 3 3 3 3 3 3 3 3 3 3 3 3 3 3 3 3 3 3 3 3 3 3 3 3 3 3 3 3 3 3 3 3 3 3 3 3 3 3 3 3 3 3 3 3 3 3 3 3 3 3 3 3 3 3 3 3 3 3 3 3 3 3 3 3 3 3 3 3 3 3 3 3 3 3 3 3 3 3 3 3 3 3 3 3 3 3 3 3 3 3 3 3 3 3 3 3 3 3 3 3 3 3 3 3 3 3         </DataArray>
      </Cells>
    </Piece>
  </UnstructuredGrid>
</VTKFile>
<!-- DATA


-->
