<?xml version="1.0"?>
<VTKFile type="UnstructuredGrid" version="0.1" byte_order="LittleEndian">
  <UnstructuredGrid>
    <Piece NumberOfPoints="128" NumberOfCells="127">
      <PointData Scalars="u">
        <DataArray type="Float32" Name="Y" NumberOfComponents="2">

0 0
0.024736935214263189 -0.012450548176003376
0.054213248092357016 -0.045525372643566507
0.093093411816266888 -0.085947252201104413
0.13755542626972958 -0.13016310845575149
0.18416694501893319 -0.17538845866603917
0.22998915618632357 -0.21950186161506541
0.27273180996213964 -0.26101932714662629
0.31093955586828159 -0.29918989933320067
0.34489446860165679 -0.33380020635221852
0.37243566881293044 -0.36547049207971916
0.39270531351002641 -0.39210565417259802
0.40743255255931754 -0.41257321286149728
0.41367477479120762 -0.42912421979812387
0.41521268517415894 -0.43784750673674272
0.40822698134750013 -0.44121996136069314
0.39842725242066229 -0.43455191874480281
0.38060465946746097 -0.42132550835438382
0.3648939646440244 -0.39609333121371526
0.34336376198800361 -0.36488196431865988
0.33006616004813744 -0.32269180680456705
0.33186645458982478 -0.27014451445291787
0.29649037407631129 -0.22136674226582206
0.25897668894213727 -0.1686054521133645
0.23004082279434229 -0.11332795313642891
0.21026002168766622 -0.058486214547054709
0.19969606721256433 -0.0064865694870066045
0.19577145323322956 0.041060873373185154
0.19797372145855238 0.083201704960060074
0.20594645321740776 0.11877590593409838
0.21642962341026881 0.14752856608809525
0.23008174910538431 0.16865104773323625
0.24358392036780641 0.18256577321996925
0.25746152170404302 0.18859984940711877
0.26838703201455416 0.18771559652513106
0.27702192422907757 0.17900224810996748
0.27994577714971258 0.16369873772307375
0.27754590827427522 0.14086770374448063
0.26646684223499412 0.11240251802073579
0.24647101501917135 0.078285506665100854
0.21684919995554799 0.038167837125805244
0.17479093534526133 -0.0049426010627894651
0.12112193688526689 -0.050217422100854552
0.055902179671246291 -0.095626220780382201
-0.019978223995399745 -0.13937531484526686
-0.10507380884844868 -0.17951532385623753
-0.19712869951574855 -0.21416060906046683
-0.29305331939233997 -0.24156555811258412
-0.38894535643703648 -0.2603032056302268
-0.48025361469992639 -0.26938800676879604
-0.56203576685489387 -0.26852759294359696
-0.6294338274303789 -0.25813703187849629
-0.67821053108669704 -0.23945685155148089
-0.70516417017136779 -0.21554166323878113
-0.70811745047300878 -0.18549151683751072
-0.68464864094940969 -0.15425616874811277
-0.63462543147355832 -0.12250973180641064
-0.55777251058397825 -0.092082345257713041
-0.45403411989229198 -0.065035892573909876
-0.32218958105227408 -0.04040581707030047
-0.16038779159488886 -0.020793801662892877
0.033240248130628917 -0.0045883352306279575
0.26037202412905336 0.0073941780879260184
0.52232412562829666 0.017583104051950391
0.81900882238647221 0.028104035735943316
1.1460468456952206 0.042379850239078733
1.4969394525055657 0.064110776630647182
1.864722477753886 0.097773114627837998
2.2416332009795976 0.14768554861952182
2.622016339922185 0.2161038658467494
3.0011011557606757 0.30992479427398606
3.3728852217552752 0.43364291289094176
3.729608654772349 0.59120257045414548
4.0620227588974984 0.78441705704363218
4.3596931446186815 1.0134323584256544
4.6113951132539723 1.2759795061007935
4.805829711636866 1.5665288928282777
4.9385454322688851 1.8709259603861323
5.0035742336645903 2.1875038376598477
4.9986183799842818 2.5065265704126425
4.9234475398529174 2.8171567310630237
4.7802002334168421 3.1081331703159636
4.5735164193438731 3.3684465475047793
4.3096339975160864 3.5884717085462152
3.9977843250492935 3.758802074224616
3.6484577703418242 3.8727353389662276
3.2732581657134743 3.9260480632328796
2.8842331733590654 3.9171808881187795
2.4931914471814958 3.8472133199951202
2.1111828603018243 3.7196065477009337
1.7479553622273865 3.53981323351098
1.4104643411182824 3.3147513177365835
1.1054373786412237 3.0512033002015575
0.83711627368032082 2.7564875409732785
0.60816121239819954 2.4375457836838526
0.41988893730026761 2.1004847495082379
0.27275009702895331 1.7502548598827816
0.16646459314914547 1.3904850120202494
0.10059209358381352 1.0234022695821519
0.074801205622569589 0.64997671607636931
0.089108464543670579 0.27021225308083408
0.14398611074318998 -0.11642560547041478
0.24668333047435428 -0.50911295651843125
0.38924439494825835 -0.91433407568966496
0.58185724209807166 -1.3369566619982978
0.82811291695649358 -1.7797819509177781
1.1360694517369843 -2.2387884135723928
1.4786961625744008 -2.7186507774928166
1.8549830412510662 -3.1991591674782698
2.2583807470986725 -3.6664475581681115
2.6731476887246939 -4.1130929391317324
3.0831170503386529 -4.5301811456787231
3.4686534905040078 -4.9060593214983541
3.8088516858999877 -5.2232149257516127
4.0820755827801642 -5.4575467519349266
4.2656498312541542 -5.5815336874294914
4.3392973735283888 -5.5657528419759439
4.2871969339832505 -5.3824933295317425
4.0983513547294876 -5.0130512093983661
3.7686467687901026 -4.4545254688896252
3.3141960741470271 -3.717667469506178
2.7390537586562043 -2.8767584856049688
2.0858970375085968 -2.0286785122520317
1.4105376102267686 -1.3013431292761322
0.81638670165798044 -0.73628042841258368
0.36803045210732971 -0.32917528292548115
0.096041956858034475 -0.083132770905695763
0 0

        </DataArray>
        <DataArray type="Float32" Name="W" NumberOfComponents="2">

-41.286678322168498 13.082400318123234
-41.281034483911561 13.087891158143934
-41.275462975651195 13.093455312430036
-41.269950319296804 13.09907772750406
-41.264481631565822 13.104742879397326
-41.259040931026576 13.110434890754888
-41.253611454697783 13.116137601596318
-41.248175856092296 13.121834487253738
-41.242716609111469 13.127508745141393
-41.237216846620896 13.13314379461481
-41.231650390134732 13.138713050395657
-41.226000061349446 13.14419730166304
-41.220250051983932 13.149577089945316
-41.214375594361933 13.154820883004886
-41.208363130257993 13.159906074017053
-41.202191356460716 13.164796967790455
-41.195849881682712 13.169466071921718
-41.189322329593629 13.173871710632563
-41.182605126051136 13.177982917001053
-41.175688780904061 13.181750124433592
-41.168578356657868 13.185137579361333
-41.161276235407897 13.188090179731645
-41.153792419083189 13.190547367558136
-41.146158245771154 13.192487139354125
-41.138410878951319 13.193908350431592
-41.130586612147901 13.19481431353762
-41.122720156744606 13.195210953960997
-41.114844513308078 13.19510453735008
-41.106991070163666 13.19450517614003
-41.099189314972634 13.193424804039649
-41.091467271736313 13.191874482759763
-41.083850753754355 13.189869235445771
-41.076364473760705 13.187422409164666
-41.069030671962572 13.184550871481948
-41.061870866474294 13.181269614519303
-41.054903656125667 13.177597210641862
-41.048147509694182 13.173549718228456
-41.041617811742661 13.16914632249004
-41.035330302486841 13.164403620189765
-41.029297135765717 13.159341404823884
-41.023529113960471 13.153979115089339
-41.018038359216426 13.148333326328274
-41.012832854166817 13.142423580726039
-41.007919483702693 13.136268892129037
-41.003303383937748 13.12988829533303
-40.998988266636907 13.123300494866415
-40.994976283113822 13.116523897591737
-40.991267951851285 13.109576562539925
-40.987862002667512 13.102476170123465
-40.984755223249763 13.095239953042242
-40.981942124549278 13.087884667665454
-40.979414781138765 13.08042644448717
-40.977162479846129 13.072880684899644
-40.975171569613877 13.065261866073689
-40.973432615555502 13.057581700052442
-40.971926171395943 13.049852643223208
-40.970636882255256 13.042084488045335
-40.969547518132039 13.034285857789557
-40.968639151793333 13.026464149488989
-40.967897799651531 13.01862491248253
-40.967298537846354 13.010773593812985
-40.966823146091585 13.002913852656647
-40.966442598537029 12.99504898999923
-40.966134909980418 12.987180969597063
-40.965865123928488 12.979311574634536
-40.965596179276886 12.971442151369622
-40.965298345785321 12.963573751053648
-40.964940169656849 12.955707829509462
-40.964488985421042 12.947846636298028
-40.963922246496203 12.939992849240131
-40.963206443922331 12.932151142313382
-40.962307922507016 12.924328143665349
-40.961192395224657 12.916532986885583
-40.959827383024951 12.908777465486214
-40.958181981573837 12.901076377529805
-40.95622739845134 12.893447707323345
-40.953937853759363 12.885912590045693
-40.951302902001906 12.878491000046616
-40.948304828856209 12.871208320890295
-40.944930501562425 12.864091965831312
-40.941171744808152 12.857170777539018
-40.937025505010979 12.850474360261934
-40.932493866908096 12.844032355600152
-40.92758309029702 12.837874359220875
-40.922305031786401 12.832028008624214
-40.916675836924703 12.826518876081796
-40.91071538499569 12.821369929664545
-40.904446643107853 12.816601135334469
-40.897894970836681 12.812229217201944
-40.891087467366688 12.808267495420997
-40.884052195947575 12.804726121542069
-40.876817131717353 12.801613393479743
-40.869410823595935 12.798933736465893
-40.861861363566426 12.796689127028261
-40.854196100149132 12.794879435521565
-40.846441447846317 12.793502753161423
-40.838622791847165 12.792555552876543
-40.830764394416164 12.792033143710157
-40.822889405210468 12.791929691238195
-40.815019852196116 12.792238272331453
-40.807176617032141 12.792950856687352
-40.799379377079035 12.794058236725959
-40.791646503855631 12.795549928271411
-40.783999388473575 12.797432356358895
-40.776454629746993 12.799690251555445
-40.769026977170469 12.802307731059818
-40.761728597212453 12.805266594418525
-40.754568699825313 12.808546455121874
-40.747553744806808 12.812125185751228
-40.740677006560496 12.815962347278505
-40.733928498925543 12.820020466785445
-40.727294287180449 12.824262630165588
-40.720759415658179 12.82865611024538
-40.714307500766303 12.833170399532966
-40.707924156720892 12.837781031283399
-40.701598995594274 12.842471069629303
-40.695325111715789 12.847229399507865
-40.689101962024964 12.852053816910564
-40.682936983112349 12.856952284668834
-40.676845961161639 12.861942360339684
-40.670855197381243 12.867052322646673
-40.665029424274834 12.872349589812941
-40.659391808253829 12.877846655304449
-40.653989786070476 12.883575394261968
-40.648686336995297 12.889395495148685
-40.643443498869011 12.895270254090667
-40.638211603823919 12.901154777708363
-40.632932786428348 12.906997286338649

        </DataArray>
        <DataArray type="Float32" Name="u" NumberOfComponents="1">
          0 0.007874015748031496 0.015748031496062992 0.023622047244094488 0.031496062992125984 0.03937007874015748 0.047244094488188976 0.055118110236220472 0.062992125984251968 0.070866141732283464 0.07874015748031496 0.086614173228346455 0.094488188976377951 0.10236220472440945 0.11023622047244094 0.11811023622047244 0.12598425196850394 0.13385826771653545 0.14173228346456693 0.14960629921259844 0.15748031496062992 0.16535433070866143 0.17322834645669291 0.18110236220472442 0.1889763779527559 0.19685039370078741 0.20472440944881889 0.2125984251968504 0.22047244094488189 0.2283464566929134 0.23622047244094488 0.24409448818897639 0.25196850393700787 0.25984251968503935 0.26771653543307089 0.27559055118110237 0.28346456692913385 0.29133858267716534 0.29921259842519687 0.30708661417322836 0.31496062992125984 0.32283464566929132 0.33070866141732286 0.33858267716535434 0.34645669291338582 0.3543307086614173 0.36220472440944884 0.37007874015748032 0.37795275590551181 0.38582677165354329 0.39370078740157483 0.40157480314960631 0.40944881889763779 0.41732283464566927 0.42519685039370081 0.43307086614173229 0.44094488188976377 0.44881889763779526 0.45669291338582679 0.46456692913385828 0.47244094488188976 0.48031496062992124 0.48818897637795278 0.49606299212598426 0.50393700787401574 0.51181102362204722 0.51968503937007871 0.52755905511811019 0.53543307086614178 0.54330708661417326 0.55118110236220474 0.55905511811023623 0.56692913385826771 0.57480314960629919 0.58267716535433067 0.59055118110236215 0.59842519685039375 0.60629921259842523 0.61417322834645671 0.62204724409448819 0.62992125984251968 0.63779527559055116 0.64566929133858264 0.65354330708661412 0.66141732283464572 0.6692913385826772 0.67716535433070868 0.68503937007874016 0.69291338582677164 0.70078740157480313 0.70866141732283461 0.71653543307086609 0.72440944881889768 0.73228346456692917 0.74015748031496065 0.74803149606299213 0.75590551181102361 0.76377952755905509 0.77165354330708658 0.77952755905511806 0.78740157480314965 0.79527559055118113 0.80314960629921262 0.8110236220472441 0.81889763779527558 0.82677165354330706 0.83464566929133854 0.84251968503937003 0.85039370078740162 0.8582677165354331 0.86614173228346458 0.87401574803149606 0.88188976377952755 0.88976377952755903 0.89763779527559051 0.90551181102362199 0.91338582677165359 0.92125984251968507 0.92913385826771655 0.93700787401574803 0.94488188976377951 0.952755905511811 0.96062992125984248 0.96850393700787396 0.97637795275590555 0.98425196850393704 0.99212598425196852 1
        </DataArray>
      </PointData>
      <CellData Scalars="P">
        <DataArray type="Float32" Name="P" NumberOfComponents="1">
          0.023846032456272984 0.035051773907601058 0.033484737221103379 0.036522217425260142 0.05580047735600277 0.097794849292245883 0.16480446721240471 0.25586430137340765 0.3679543699859753 0.51359369717649894 0.67396451086138409 0.84238485440379018 1.0308927561421368 1.2182210844672403 1.4140103159772852 1.5971941527013971 1.7769576117737427 1.9326479970713508 2.0845975535775887 2.2181128120471554 2.3645481634488692 2.5208561007470531 2.6180416497127275 2.6976896940905388 2.7816989362601667 2.8840547588084879 3.0149841355556872 3.1756058926144561 3.3680512488800227 3.5974306348957996 3.8609860526329185 4.1631427837642825 4.5003079365765819 4.8773976713446956 5.2904328112033321 5.7475017826975989 6.245753442102 6.7944187957108646 7.3876419207830493 8.028748725241007 8.7287669999890127 9.4741393629924282 10.258955376690853 11.07327560860122 11.905934427453081 12.742527318410994 13.565545728212246 14.354583180438498 15.087451129680147 15.741467031419987 16.296541155947761 16.737645320455055 17.058383107206019 17.267961027181833 17.361875415907125 17.357446587401675 17.269771165430825 17.116563251207868 16.907303086713803 16.671943359280931 16.416208304531605 16.190095334317796 15.999653315704109 15.928445712046202 16.031536832914341 16.307497914345483 16.789368657644093 17.498510211143309 18.371268079675403 19.481625260032693 20.827900419156659 22.40303407592209 24.171007900118155 26.085085114619446 28.082415402654835 30.082354350499326 31.931130115108946 33.632605239754326 35.126652308794668 36.358472310360412 37.282334664947264 37.86434910663538 38.084660669501581 37.932611006233962 37.413720848577618 36.547503298357277 35.365676185814195 33.909592569332418 32.227489580656041 30.370416056933067 28.383549140299188 26.314997275455728 24.202315652939674 22.075628940638385 19.956405648639517 17.857545816661773 15.782053721638819 13.725163651466511 11.675111943805353 9.6151219524314371 7.5260070375979513 5.3894087777838653 3.0778925478057726 0.64607140130633145 -1.948337045968177 -4.7067201237844616 -7.592826550757839 -10.348576415709253 -12.8556613844446 -15.051525079366151 -16.868722893514587 -18.292762455982466 -19.308434748230312 -19.958578170972348 -20.30695910254331 -20.398615321273997 -20.248621112610397 -19.774126449495686 -18.764894759536791 -16.866986622407349 -13.030010472042353 -8.3417803091248377 -2.6873019269972889 -0.76483801760138403 0.1273725014492148 0.2110896267674271 -0.024861026244280767
        </DataArray>
      </CellData>
      <Points>
        <DataArray type="Float32" NumberOfComponents="3" format="ascii">
          -41.286678322168498 13.082400318123234 0
          -41.281034483911561 13.087891158143934 0
          -41.275462975651195 13.093455312430036 0
          -41.269950319296804 13.09907772750406 0
          -41.264481631565822 13.104742879397326 0
          -41.259040931026576 13.110434890754888 0
          -41.253611454697783 13.116137601596318 0
          -41.248175856092296 13.121834487253738 0
          -41.242716609111469 13.127508745141393 0
          -41.237216846620896 13.13314379461481 0
          -41.231650390134732 13.138713050395657 0
          -41.226000061349446 13.14419730166304 0
          -41.220250051983932 13.149577089945316 0
          -41.214375594361933 13.154820883004886 0
          -41.208363130257993 13.159906074017053 0
          -41.202191356460716 13.164796967790455 0
          -41.195849881682712 13.169466071921718 0
          -41.189322329593629 13.173871710632563 0
          -41.182605126051136 13.177982917001053 0
          -41.175688780904061 13.181750124433592 0
          -41.168578356657868 13.185137579361333 0
          -41.161276235407897 13.188090179731645 0
          -41.153792419083189 13.190547367558136 0
          -41.146158245771154 13.192487139354125 0
          -41.138410878951319 13.193908350431592 0
          -41.130586612147901 13.19481431353762 0
          -41.122720156744606 13.195210953960997 0
          -41.114844513308078 13.19510453735008 0
          -41.106991070163666 13.19450517614003 0
          -41.099189314972634 13.193424804039649 0
          -41.091467271736313 13.191874482759763 0
          -41.083850753754355 13.189869235445771 0
          -41.076364473760705 13.187422409164666 0
          -41.069030671962572 13.184550871481948 0
          -41.061870866474294 13.181269614519303 0
          -41.054903656125667 13.177597210641862 0
          -41.048147509694182 13.173549718228456 0
          -41.041617811742661 13.16914632249004 0
          -41.035330302486841 13.164403620189765 0
          -41.029297135765717 13.159341404823884 0
          -41.023529113960471 13.153979115089339 0
          -41.018038359216426 13.148333326328274 0
          -41.012832854166817 13.142423580726039 0
          -41.007919483702693 13.136268892129037 0
          -41.003303383937748 13.12988829533303 0
          -40.998988266636907 13.123300494866415 0
          -40.994976283113822 13.116523897591737 0
          -40.991267951851285 13.109576562539925 0
          -40.987862002667512 13.102476170123465 0
          -40.984755223249763 13.095239953042242 0
          -40.981942124549278 13.087884667665454 0
          -40.979414781138765 13.08042644448717 0
          -40.977162479846129 13.072880684899644 0
          -40.975171569613877 13.065261866073689 0
          -40.973432615555502 13.057581700052442 0
          -40.971926171395943 13.049852643223208 0
          -40.970636882255256 13.042084488045335 0
          -40.969547518132039 13.034285857789557 0
          -40.968639151793333 13.026464149488989 0
          -40.967897799651531 13.01862491248253 0
          -40.967298537846354 13.010773593812985 0
          -40.966823146091585 13.002913852656647 0
          -40.966442598537029 12.99504898999923 0
          -40.966134909980418 12.987180969597063 0
          -40.965865123928488 12.979311574634536 0
          -40.965596179276886 12.971442151369622 0
          -40.965298345785321 12.963573751053648 0
          -40.964940169656849 12.955707829509462 0
          -40.964488985421042 12.947846636298028 0
          -40.963922246496203 12.939992849240131 0
          -40.963206443922331 12.932151142313382 0
          -40.962307922507016 12.924328143665349 0
          -40.961192395224657 12.916532986885583 0
          -40.959827383024951 12.908777465486214 0
          -40.958181981573837 12.901076377529805 0
          -40.95622739845134 12.893447707323345 0
          -40.953937853759363 12.885912590045693 0
          -40.951302902001906 12.878491000046616 0
          -40.948304828856209 12.871208320890295 0
          -40.944930501562425 12.864091965831312 0
          -40.941171744808152 12.857170777539018 0
          -40.937025505010979 12.850474360261934 0
          -40.932493866908096 12.844032355600152 0
          -40.92758309029702 12.837874359220875 0
          -40.922305031786401 12.832028008624214 0
          -40.916675836924703 12.826518876081796 0
          -40.91071538499569 12.821369929664545 0
          -40.904446643107853 12.816601135334469 0
          -40.897894970836681 12.812229217201944 0
          -40.891087467366688 12.808267495420997 0
          -40.884052195947575 12.804726121542069 0
          -40.876817131717353 12.801613393479743 0
          -40.869410823595935 12.798933736465893 0
          -40.861861363566426 12.796689127028261 0
          -40.854196100149132 12.794879435521565 0
          -40.846441447846317 12.793502753161423 0
          -40.838622791847165 12.792555552876543 0
          -40.830764394416164 12.792033143710157 0
          -40.822889405210468 12.791929691238195 0
          -40.815019852196116 12.792238272331453 0
          -40.807176617032141 12.792950856687352 0
          -40.799379377079035 12.794058236725959 0
          -40.791646503855631 12.795549928271411 0
          -40.783999388473575 12.797432356358895 0
          -40.776454629746993 12.799690251555445 0
          -40.769026977170469 12.802307731059818 0
          -40.761728597212453 12.805266594418525 0
          -40.754568699825313 12.808546455121874 0
          -40.747553744806808 12.812125185751228 0
          -40.740677006560496 12.815962347278505 0
          -40.733928498925543 12.820020466785445 0
          -40.727294287180449 12.824262630165588 0
          -40.720759415658179 12.82865611024538 0
          -40.714307500766303 12.833170399532966 0
          -40.707924156720892 12.837781031283399 0
          -40.701598995594274 12.842471069629303 0
          -40.695325111715789 12.847229399507865 0
          -40.689101962024964 12.852053816910564 0
          -40.682936983112349 12.856952284668834 0
          -40.676845961161639 12.861942360339684 0
          -40.670855197381243 12.867052322646673 0
          -40.665029424274834 12.872349589812941 0
          -40.659391808253829 12.877846655304449 0
          -40.653989786070476 12.883575394261968 0
          -40.648686336995297 12.889395495148685 0
          -40.643443498869011 12.895270254090667 0
          -40.638211603823919 12.901154777708363 0
          -40.632932786428348 12.906997286338649 0
        </DataArray>
      </Points>
      <Cells>
        <DataArray type="Int32" Name="connectivity" format="ascii">
          0 1 1 2 2 3 3 4 4 5 5 6 6 7 7 8 8 9 9 10 10 11 11 12 12 13 13 14 14 15 15 16 16 17 17 18 18 19 19 20 20 21 21 22 22 23 23 24 24 25 25 26 26 27 27 28 28 29 29 30 30 31 31 32 32 33 33 34 34 35 35 36 36 37 37 38 38 39 39 40 40 41 41 42 42 43 43 44 44 45 45 46 46 47 47 48 48 49 49 50 50 51 51 52 52 53 53 54 54 55 55 56 56 57 57 58 58 59 59 60 60 61 61 62 62 63 63 64 64 65 65 66 66 67 67 68 68 69 69 70 70 71 71 72 72 73 73 74 74 75 75 76 76 77 77 78 78 79 79 80 80 81 81 82 82 83 83 84 84 85 85 86 86 87 87 88 88 89 89 90 90 91 91 92 92 93 93 94 94 95 95 96 96 97 97 98 98 99 99 100 100 101 101 102 102 103 103 104 104 105 105 106 106 107 107 108 108 109 109 110 110 111 111 112 112 113 113 114 114 115 115 116 116 117 117 118 118 119 119 120 120 121 121 122 122 123 123 124 124 125 125 126 126 127 
        </DataArray>
        <DataArray type="Int32" Name="offsets" format="ascii">
          2 4 6 8 10 12 14 16 18 20 22 24 26 28 30 32 34 36 38 40 42 44 46 48 50 52 54 56 58 60 62 64 66 68 70 72 74 76 78 80 82 84 86 88 90 92 94 96 98 100 102 104 106 108 110 112 114 116 118 120 122 124 126 128 130 132 134 136 138 140 142 144 146 148 150 152 154 156 158 160 162 164 166 168 170 172 174 176 178 180 182 184 186 188 190 192 194 196 198 200 202 204 206 208 210 212 214 216 218 220 222 224 226 228 230 232 234 236 238 240 242 244 246 248 250 252 254 
        </DataArray>
        <DataArray type="Int32" Name="types" format="ascii">
          3 3 3 3 3 3 3 3 3 3 3 3 3 3 3 3 3 3 3 3 3 3 3 3 3 3 3 3 3 3 3 3 3 3 3 3 3 3 3 3 3 3 3 3 3 3 3 3 3 3 3 3 3 3 3 3 3 3 3 3 3 3 3 3 3 3 3 3 3 3 3 3 3 3 3 3 3 3 3 3 3 3 3 3 3 3 3 3 3 3 3 3 3 3 3 3 3 3 3 3 3 3 3 3 3 3 3 3 3 3 3 3 3 3 3 3 3 3 3 3 3 3 3 3 3 3 3         </DataArray>
      </Cells>
    </Piece>
  </UnstructuredGrid>
</VTKFile>
<!-- DATA


-->
