<?xml version="1.0"?>
<VTKFile type="UnstructuredGrid" version="0.1" byte_order="LittleEndian">
  <UnstructuredGrid>
    <Piece NumberOfPoints="128" NumberOfCells="127">
      <PointData Scalars="u">
        <DataArray type="Float32" Name="Y" NumberOfComponents="2">

0 0
0.052085446860490152 -0.0179733238730172
0.041549375594592514 -0.035766632183529747
0.017457096200702099 -0.068513498254544142
-0.021830893146835242 -0.11120085017860633
-0.076547393952590914 -0.15893864885549885
-0.14561286564441209 -0.20729833516073617
-0.22682645526710971 -0.25259749042020785
-0.31712669003316557 -0.29209974797980026
-0.41288754024822699 -0.32411229095541683
-0.51021441713559668 -0.34797763832584416
-0.60520925198853071 -0.36396938684398672
-0.69418269476891992 -0.37311127064492244
-0.77380268271805286 -0.3769443649507439
-0.84118005396539286 -0.37726854656466002
-0.89390171519914485 -0.37588230686422097
-0.93002886123693684 -0.3743410726334892
-0.9480812489236401 -0.373749806053842
-0.94702843026010231 -0.37460204418213428
-0.9263053783609857 -0.37667538874022211
-0.88586350406079062 -0.37899278951259502
-0.82625917000647375 -0.37985911691157448
-0.74877111060436286 -0.37698225840769056
-0.65552660330523138 -0.367685711504733
-0.5496052453722613 -0.34921380578810968
-0.43508084976660144 -0.31912016458068582
-0.31695893804693226 -0.27571477357757457
-0.20097241447959019 -0.21852661601453791
-0.093213464684555186 -0.14872074517585199
0.00039400295347531971 -0.0693961120727834
0.074742387552989786 0.014310543792898216
0.12623280564011946 0.09537384739824202
0.15340526972019175 0.16530706913575466
0.15738628022076639 0.21484351127602369
0.142044632656671 0.23479305326514888
0.11378479886459474 0.21694790131532182
0.080967639267279831 0.15488698399024678
0.05301706328303063 0.044536461568448954
0.039330827131592624 -0.1156138968959522
0.04814760761487321 -0.32467071786887231
0.085521792136628805 -0.57982841800484286
0.15452375923025666 -0.87707948070927
0.25472863476606245 -1.211988482266005
0.3819982974420148 -1.5803639315745022
0.52851735445574388 -1.9786808756504464
0.68302605406880834 -2.4041474227878203
0.83120545533179024 -2.8543600079378519
0.95620783290902833 -3.3265485463009004
1.0393762512470757 -3.8164719925171964
1.0612441781547508 -4.3170898394649617
1.0029281710197877 -4.8172083463958844
0.87179203757127655 -5.2960012282425808
0.68754128043396812 -5.7374356137576834
0.44410599776728832 -6.1309711427040767
0.14642321852489432 -6.4648675242138314
-0.19733763961685533 -6.7283799033918781
-0.57601966200483423 -6.9125356828254905
-0.97598612051905664 -7.0108445458062754
-1.3818611527011897 -7.0198569285105963
-1.7774416747571999 -6.9394975416054345
-2.1466934762560657 -6.7731255955840197
-2.4747313840633316 -6.527308057428189
-2.748685668598323 -6.2113301206636917
-2.958374236205398 -5.8365008675752366
-3.0967290049000122 -5.4153356412232805
-3.159959273112579 -4.9607062740259744
-3.1474682413641948 -4.4850456352682011
-3.0615654818120595 -3.9996765397395988
-2.9070345635697361 -3.5143114337449517
-2.690620311280798 -3.0367435476177498
-2.4204956388861958 -2.5727268206465124
-2.1057563821516978 -2.1260238433143743
-1.7559774077115473 -1.6985895975075365
-1.380847603031369 -1.2908536905088044
-0.98988749260311215 -0.90206385274395517
-0.59224258660433771 -0.53065703052449387
-0.19653869085980283 -0.17462979398357048
0.18921782313361993 0.16811434320372456
0.55771189891889261 0.49945761234734465
0.90237864963240488 0.82081293714426629
1.2174600983267885 1.1329295785437556
1.4980659239598604 1.4357647527541346
1.7402393320517491 1.7284236662622929
1.9410245555137218 2.0091676004569283
2.0985287749179298 2.275486684069429
2.2119688343795971 2.5242307770472729
2.2816922935997423 2.7517885990577851
2.3091632003522324 2.9543021753774017
2.2969053947138622 3.1279012431138944
2.2483998603300015 3.2689408728213185
2.1679371306482436 3.3742255367948468
2.0604304324282232 3.4412043442353997
1.9311994643288213 3.4681250936171542
1.7857379020843935 3.4541388612945263
1.6294794922868072 3.3993515691405052
1.4675777705530861 3.3048237667111748
1.3047130824854416 3.1725241411926883
1.1449379747527453 3.0052455448699482
0.99156857512831675 2.8064942915205577
0.84712576853658283 2.5803640112705453
0.71332624144090395 2.3314045622291926
0.59112015302013776 2.0644946341431658
0.48076951468107715 1.784724106582146
0.38195939174471438 1.4972893503100617
0.2939327550464591 1.2074018774756692
0.21563910278796036 0.92020839266337229
0.14588672743157191 0.64071862543079539
0.083488624732139985 0.37373648932085696
0.027392493722171795 0.12379015916792931
-0.023213918222115819 -0.10494247246909423
-0.068829637847071926 -0.30871497043466684
-0.10960520941462806 -0.48430024030766577
-0.14534876326955048 -0.62908317537936853
-0.17557387258366397 -0.7411543629767865
-0.19958624806533387 -0.81939996785580371
-0.21660267787093893 -0.86358254736378104
-0.22589210867024268 -0.87440808950241844
-0.22692582510330292 -0.85357589489465324
-0.21952176672214221 -0.80380974748400291
-0.20396752482560462 -0.72887068050495085
-0.18110776211746279 -0.63355302329939223
-0.15238483208103062 -0.52366584170220121
-0.11982620928701769 -0.40600107756534742
-0.085978796352629352 -0.28828765854019922
-0.053797919294913371 -0.17912793440515754
-0.026507365602116854 -0.087909651936745714
-0.0074554639899768417 -0.024684121375092752
0 0

        </DataArray>
        <DataArray type="Float32" Name="W" NumberOfComponents="2">

-2.2360772456342373 1.078905598870173
-2.2287068171456887 1.0761345283179868
-2.2215750892493404 1.0727967948106325
-2.2147212675787276 1.0689203187328578
-2.2081788145699051 1.0645387492871345
-2.2019743718401914 1.0596903873969201
-2.1961269320055714 1.0544169605568465
-2.1906472880996302 1.0487623225459966
-2.1855377701193928 1.0427711549938452
-2.1807922599578871 1.0364877463336462
-2.1763964598123824 1.02995491692191
-2.1723283765999257 1.0232131477990865
-2.1685589770821809 1.0162999558869197
-2.1650529658605504 1.0092495417729208
-2.1617696410883158 1.0020927190586506
-2.1586637899945869 0.99485711780102559
-2.1556865969578025 0.98756763976864637
-2.1527865493894023 0.98024713056116608
-2.1499103394055026 0.97291722318371243
-2.147003770489595 0.96559929920696397
-2.1440126865374105 0.95831550680988575
-2.1408839445327228 0.95108976948327861
-2.1375664506758709 0.94394871490112398
-2.1340122725432464 0.93692245077333558
-2.1301778267821145 0.93004511418202962
-2.1260251235627607 0.92335512422389465
-2.1215230269039864 0.91689507627371192
-2.1166484663079204 0.91071123138076171
-2.1113875130124824 0.90485257730487589
-2.1057362174412719 0.89936946863061473
-2.099701097267618 0.89431189093905172
-2.0932991717212093 0.88972743501963447
-2.0865574599003303 0.88565910658341052
-2.0795118992346584 0.88214312854529786
-2.0722056922265555 0.87920691000162421
-2.0646871493647061 0.87686735301880314
-2.0570071552653326 0.87512964250944281
-2.0492164341538381 0.87398661705551883
-2.0413628212005905 0.87341875521620949
-2.0334887524764143 0.87339474199097689
-2.0256291674658833 0.87387251494600515
-2.0178099781452419 0.87480063979043643
-2.0100472054845087 0.87611983883977185
-2.002346827613867 0.87776449646016586
-1.9947053329110007 0.87966399226816183
-1.9871109321941229 0.88174376077372085
-1.979545359153015 0.88392603816878279
-1.971986174832554 0.88613032512355538
-1.9644094845427877 0.88827366099724481
-1.9567929661950989 0.89027086249974385
-1.9491190901254127 0.89203492135170492
-1.9413783769263584 0.89347777323654232
-1.9335836067436853 0.89459227119955909
-1.9257462027235648 0.89535104537437649
-1.9178812577654984 0.89572969547742165
-1.9100072284799132 0.89570751878229959
-1.9021454287073101 0.89526817639910372
-1.8943193377760281 0.89440024968430798
-1.8865537549733495 0.89309764274561221
-1.8788738461558665 0.89135979640180851
-1.8713041390467666 0.88919169290680244
-1.8638675289909361 0.88660364769568745
-1.856584355952839 0.88361090220868466
-1.8494716064883683 0.88023304814762371
-1.8425422823774795 0.87649332622288156
-1.8358049623590891 0.87241785009595785
-1.8292635670980346 0.86803480821672374
-1.8229173222046713 0.86337369288541377
-1.8167609014729866 0.85846459815621545
-1.8107847235210575 0.85333761760747984
-1.8049753700348177 0.84802236112896479
-1.7993160925510303 0.84254759816951474
-1.7937873764533219 0.83694102446928875
-1.7883675346566776 0.8312291408799487
-1.7830333083486674 0.82543722676924591
-1.7777604572803565 0.819589386708371
-1.7725243267965722 0.81370864743019256
-1.7673003826375282 0.80781708208977998
-1.7620647073315348 0.80193594029084769
-1.7567944537249489 0.79608576482294136
-1.7514682520026192 0.7902864792947748
-1.7460665666824282 0.78455743461277272
-1.7405719998183853 0.77891740634456541
-1.7349695363281963 0.77338453924936656
-1.7292467272594816 0.76797623947659488
-1.7233938071542738 0.76270901894515242
-1.7174037426138191 0.75759830001911754
-1.7112722107568044 0.75265819158721825
-1.7049975084516613 0.74790124984349915
-1.6985803958370447 0.74333823830440338
-1.6920238804942231 0.73897790179693101
-1.685332951422321 0.73482676831211735
-1.6785142744022425 0.73088899083010883
-1.671575862156202 0.72716623866930397
-1.6645267337190486 0.72365764484468942
-1.6573765775251799 0.72035981263259197
-1.6501354318700292 0.71726688132780125
-1.6428133947120824 0.71437064830969754
-1.6354203724020573 0.71166074220981057
-1.6279658740741549 0.70912484031579681
-1.620458855346532 0.70674892238948694
-1.6129076118859809 0.70451755277036454
-1.6053197205006857 0.7024141828650019
-1.5977020229008749 0.70042146672808281
-1.5900606452321548 0.69852158324343161
-1.5824010450200523 0.69669655924138407
-1.5747280763106066 0.69492858859591955
-1.5670460635659678 0.69320034282759568
-1.5593588752682506 0.69149526894466429
-1.5516699891713444 0.68979787018771432
-1.5439825426690614 0.68809396505666565
-1.5362993637424316 0.68637091958770147
-1.528622980300087 0.6846178474317075
-1.5209556082878559 0.68282577199029892
-1.513299121534553 0.68098774479967972
-1.5056550087089475 0.67909891458946392
-1.4980243247621032 0.67715654200567788
-1.4904076456020916 0.67515995584125488
-1.4828050353122233 0.6731104476809574
-1.4752160348605432 0.67101110302776357
-1.4676396799265246 0.66886656811890566
-1.4600745532651824 0.66668275267644039
-1.4525188741272441 0.66446646974297452
-1.4449706239563156 0.66222501457797656
-1.4374277042903585 0.65996568546009904
-1.4298881199854656 0.65769525033679432
-1.4223501790845443 0.65541936477916063
-1.4148127004080422 0.65314194879602872

        </DataArray>
        <DataArray type="Float32" Name="u" NumberOfComponents="1">
          0 0.007874015748031496 0.015748031496062992 0.023622047244094488 0.031496062992125984 0.03937007874015748 0.047244094488188976 0.055118110236220472 0.062992125984251968 0.070866141732283464 0.07874015748031496 0.086614173228346455 0.094488188976377951 0.10236220472440945 0.11023622047244094 0.11811023622047244 0.12598425196850394 0.13385826771653545 0.14173228346456693 0.14960629921259844 0.15748031496062992 0.16535433070866143 0.17322834645669291 0.18110236220472442 0.1889763779527559 0.19685039370078741 0.20472440944881889 0.2125984251968504 0.22047244094488189 0.2283464566929134 0.23622047244094488 0.24409448818897639 0.25196850393700787 0.25984251968503935 0.26771653543307089 0.27559055118110237 0.28346456692913385 0.29133858267716534 0.29921259842519687 0.30708661417322836 0.31496062992125984 0.32283464566929132 0.33070866141732286 0.33858267716535434 0.34645669291338582 0.3543307086614173 0.36220472440944884 0.37007874015748032 0.37795275590551181 0.38582677165354329 0.39370078740157483 0.40157480314960631 0.40944881889763779 0.41732283464566927 0.42519685039370081 0.43307086614173229 0.44094488188976377 0.44881889763779526 0.45669291338582679 0.46456692913385828 0.47244094488188976 0.48031496062992124 0.48818897637795278 0.49606299212598426 0.50393700787401574 0.51181102362204722 0.51968503937007871 0.52755905511811019 0.53543307086614178 0.54330708661417326 0.55118110236220474 0.55905511811023623 0.56692913385826771 0.57480314960629919 0.58267716535433067 0.59055118110236215 0.59842519685039375 0.60629921259842523 0.61417322834645671 0.62204724409448819 0.62992125984251968 0.63779527559055116 0.64566929133858264 0.65354330708661412 0.66141732283464572 0.6692913385826772 0.67716535433070868 0.68503937007874016 0.69291338582677164 0.70078740157480313 0.70866141732283461 0.71653543307086609 0.72440944881889768 0.73228346456692917 0.74015748031496065 0.74803149606299213 0.75590551181102361 0.76377952755905509 0.77165354330708658 0.77952755905511806 0.78740157480314965 0.79527559055118113 0.80314960629921262 0.8110236220472441 0.81889763779527558 0.82677165354330706 0.83464566929133854 0.84251968503937003 0.85039370078740162 0.8582677165354331 0.86614173228346458 0.87401574803149606 0.88188976377952755 0.88976377952755903 0.89763779527559051 0.90551181102362199 0.91338582677165359 0.92125984251968507 0.92913385826771655 0.93700787401574803 0.94488188976377951 0.952755905511811 0.96062992125984248 0.96850393700787396 0.97637795275590555 0.98425196850393704 0.99212598425196852 1
        </DataArray>
      </PointData>
      <CellData Scalars="P">
        <DataArray type="Float32" Name="P" NumberOfComponents="1">
          0.004593388102975049 0.24716641816624024 0.69081872065667982 1.2981876833051678 2.0282521956214254 2.8380955081323354 3.684893568659696 4.527964899588004 5.3307232895139585 6.0623948650392459 6.6993929185195071 7.2262820379428758 7.6363017406048561 7.9314533900446555 8.1221783991833778 8.2266683326295436 8.2698486534403965 8.2820699699301557 8.2975281203593205 8.3524229004698824 8.4828606977886594 8.7225141969714954 9.1000765833314219 9.6365896939131552 10.342783256801383 11.216629353674218 12.241381521362332 13.384416240225429 14.597208154342745 15.816732090224718 16.968482939336042 17.971137527624812 18.742664622683954 19.207450850635173 19.303795580458573 18.990985477477448 18.255129735700596 17.113038432524323 15.613646738304418 13.836783840189723 11.889393806447067 9.8995697495100199 8.0089125548388633 6.3637521436622908 5.1056899746803035 4.3617848802510677 4.234577869929212 4.7921052130046204 6.0581381971590069 8.0031362590444335 10.536784374994284 12.906716741343901 15.232103514915957 17.424251307232158 19.395000029041451 21.062049367939057 22.354150618583429 23.215717557321831 23.610442675805771 23.523590195752231 22.962767428396603 21.957133867776317 20.555169066562708 18.82126083210585 16.831474124087055 14.668906619198323 12.419028260986494 10.165347895393715 7.9856654340231028 5.9490703775843148 4.113753006386049 2.5256150384947849 1.2176087663436634 0.20969928148212397 -0.4906688684405881 -0.88771606717808271 -0.99618460423457267 -0.83999065513719495 -0.45073405537082079 0.13388804792908895 0.87172928901915481 1.7178754624220434 2.6263311755385552 3.5516799201960492 4.4506793597942584 5.2837468676726145 6.0162852664195574 6.6197971039033323 7.0727388817346624 7.3610748986876118 7.4785034259200511 7.426344661225917 7.2130986085292195 6.8536996983041885 6.3685116603467451 5.7821192998285342 5.1219824210358258 4.4170209014771995 3.6961992088560551 2.9871743547775305 2.315064537073781 1.7013876967133705 1.1632108318966283 0.71254269802079062 0.35599452248139907 0.094725165305218559 -0.075321985523831694 -0.16289405145506652 -0.18063279998715751 -0.14404138908953942 -0.070266029548131881 0.023235107114571194 0.12004431484890604 0.20605142657549891 0.27052074898846323 0.30684543928890462 0.31289242420325253 0.29087114677969766 0.24670416287322205 0.18893488847722592 0.12727367221556057 0.070952085352030653 0.027119628153965947 -0.00043142680102334943 -0.011897565533620778 -0.011137266096622956 -0.0041102989635171151
        </DataArray>
      </CellData>
      <Points>
        <DataArray type="Float32" NumberOfComponents="3" format="ascii">
          -2.2360772456342373 1.078905598870173 0
          -2.2287068171456887 1.0761345283179868 0
          -2.2215750892493404 1.0727967948106325 0
          -2.2147212675787276 1.0689203187328578 0
          -2.2081788145699051 1.0645387492871345 0
          -2.2019743718401914 1.0596903873969201 0
          -2.1961269320055714 1.0544169605568465 0
          -2.1906472880996302 1.0487623225459966 0
          -2.1855377701193928 1.0427711549938452 0
          -2.1807922599578871 1.0364877463336462 0
          -2.1763964598123824 1.02995491692191 0
          -2.1723283765999257 1.0232131477990865 0
          -2.1685589770821809 1.0162999558869197 0
          -2.1650529658605504 1.0092495417729208 0
          -2.1617696410883158 1.0020927190586506 0
          -2.1586637899945869 0.99485711780102559 0
          -2.1556865969578025 0.98756763976864637 0
          -2.1527865493894023 0.98024713056116608 0
          -2.1499103394055026 0.97291722318371243 0
          -2.147003770489595 0.96559929920696397 0
          -2.1440126865374105 0.95831550680988575 0
          -2.1408839445327228 0.95108976948327861 0
          -2.1375664506758709 0.94394871490112398 0
          -2.1340122725432464 0.93692245077333558 0
          -2.1301778267821145 0.93004511418202962 0
          -2.1260251235627607 0.92335512422389465 0
          -2.1215230269039864 0.91689507627371192 0
          -2.1166484663079204 0.91071123138076171 0
          -2.1113875130124824 0.90485257730487589 0
          -2.1057362174412719 0.89936946863061473 0
          -2.099701097267618 0.89431189093905172 0
          -2.0932991717212093 0.88972743501963447 0
          -2.0865574599003303 0.88565910658341052 0
          -2.0795118992346584 0.88214312854529786 0
          -2.0722056922265555 0.87920691000162421 0
          -2.0646871493647061 0.87686735301880314 0
          -2.0570071552653326 0.87512964250944281 0
          -2.0492164341538381 0.87398661705551883 0
          -2.0413628212005905 0.87341875521620949 0
          -2.0334887524764143 0.87339474199097689 0
          -2.0256291674658833 0.87387251494600515 0
          -2.0178099781452419 0.87480063979043643 0
          -2.0100472054845087 0.87611983883977185 0
          -2.002346827613867 0.87776449646016586 0
          -1.9947053329110007 0.87966399226816183 0
          -1.9871109321941229 0.88174376077372085 0
          -1.979545359153015 0.88392603816878279 0
          -1.971986174832554 0.88613032512355538 0
          -1.9644094845427877 0.88827366099724481 0
          -1.9567929661950989 0.89027086249974385 0
          -1.9491190901254127 0.89203492135170492 0
          -1.9413783769263584 0.89347777323654232 0
          -1.9335836067436853 0.89459227119955909 0
          -1.9257462027235648 0.89535104537437649 0
          -1.9178812577654984 0.89572969547742165 0
          -1.9100072284799132 0.89570751878229959 0
          -1.9021454287073101 0.89526817639910372 0
          -1.8943193377760281 0.89440024968430798 0
          -1.8865537549733495 0.89309764274561221 0
          -1.8788738461558665 0.89135979640180851 0
          -1.8713041390467666 0.88919169290680244 0
          -1.8638675289909361 0.88660364769568745 0
          -1.856584355952839 0.88361090220868466 0
          -1.8494716064883683 0.88023304814762371 0
          -1.8425422823774795 0.87649332622288156 0
          -1.8358049623590891 0.87241785009595785 0
          -1.8292635670980346 0.86803480821672374 0
          -1.8229173222046713 0.86337369288541377 0
          -1.8167609014729866 0.85846459815621545 0
          -1.8107847235210575 0.85333761760747984 0
          -1.8049753700348177 0.84802236112896479 0
          -1.7993160925510303 0.84254759816951474 0
          -1.7937873764533219 0.83694102446928875 0
          -1.7883675346566776 0.8312291408799487 0
          -1.7830333083486674 0.82543722676924591 0
          -1.7777604572803565 0.819589386708371 0
          -1.7725243267965722 0.81370864743019256 0
          -1.7673003826375282 0.80781708208977998 0
          -1.7620647073315348 0.80193594029084769 0
          -1.7567944537249489 0.79608576482294136 0
          -1.7514682520026192 0.7902864792947748 0
          -1.7460665666824282 0.78455743461277272 0
          -1.7405719998183853 0.77891740634456541 0
          -1.7349695363281963 0.77338453924936656 0
          -1.7292467272594816 0.76797623947659488 0
          -1.7233938071542738 0.76270901894515242 0
          -1.7174037426138191 0.75759830001911754 0
          -1.7112722107568044 0.75265819158721825 0
          -1.7049975084516613 0.74790124984349915 0
          -1.6985803958370447 0.74333823830440338 0
          -1.6920238804942231 0.73897790179693101 0
          -1.685332951422321 0.73482676831211735 0
          -1.6785142744022425 0.73088899083010883 0
          -1.671575862156202 0.72716623866930397 0
          -1.6645267337190486 0.72365764484468942 0
          -1.6573765775251799 0.72035981263259197 0
          -1.6501354318700292 0.71726688132780125 0
          -1.6428133947120824 0.71437064830969754 0
          -1.6354203724020573 0.71166074220981057 0
          -1.6279658740741549 0.70912484031579681 0
          -1.620458855346532 0.70674892238948694 0
          -1.6129076118859809 0.70451755277036454 0
          -1.6053197205006857 0.7024141828650019 0
          -1.5977020229008749 0.70042146672808281 0
          -1.5900606452321548 0.69852158324343161 0
          -1.5824010450200523 0.69669655924138407 0
          -1.5747280763106066 0.69492858859591955 0
          -1.5670460635659678 0.69320034282759568 0
          -1.5593588752682506 0.69149526894466429 0
          -1.5516699891713444 0.68979787018771432 0
          -1.5439825426690614 0.68809396505666565 0
          -1.5362993637424316 0.68637091958770147 0
          -1.528622980300087 0.6846178474317075 0
          -1.5209556082878559 0.68282577199029892 0
          -1.513299121534553 0.68098774479967972 0
          -1.5056550087089475 0.67909891458946392 0
          -1.4980243247621032 0.67715654200567788 0
          -1.4904076456020916 0.67515995584125488 0
          -1.4828050353122233 0.6731104476809574 0
          -1.4752160348605432 0.67101110302776357 0
          -1.4676396799265246 0.66886656811890566 0
          -1.4600745532651824 0.66668275267644039 0
          -1.4525188741272441 0.66446646974297452 0
          -1.4449706239563156 0.66222501457797656 0
          -1.4374277042903585 0.65996568546009904 0
          -1.4298881199854656 0.65769525033679432 0
          -1.4223501790845443 0.65541936477916063 0
          -1.4148127004080422 0.65314194879602872 0
        </DataArray>
      </Points>
      <Cells>
        <DataArray type="Int32" Name="connectivity" format="ascii">
          0 1 1 2 2 3 3 4 4 5 5 6 6 7 7 8 8 9 9 10 10 11 11 12 12 13 13 14 14 15 15 16 16 17 17 18 18 19 19 20 20 21 21 22 22 23 23 24 24 25 25 26 26 27 27 28 28 29 29 30 30 31 31 32 32 33 33 34 34 35 35 36 36 37 37 38 38 39 39 40 40 41 41 42 42 43 43 44 44 45 45 46 46 47 47 48 48 49 49 50 50 51 51 52 52 53 53 54 54 55 55 56 56 57 57 58 58 59 59 60 60 61 61 62 62 63 63 64 64 65 65 66 66 67 67 68 68 69 69 70 70 71 71 72 72 73 73 74 74 75 75 76 76 77 77 78 78 79 79 80 80 81 81 82 82 83 83 84 84 85 85 86 86 87 87 88 88 89 89 90 90 91 91 92 92 93 93 94 94 95 95 96 96 97 97 98 98 99 99 100 100 101 101 102 102 103 103 104 104 105 105 106 106 107 107 108 108 109 109 110 110 111 111 112 112 113 113 114 114 115 115 116 116 117 117 118 118 119 119 120 120 121 121 122 122 123 123 124 124 125 125 126 126 127 
        </DataArray>
        <DataArray type="Int32" Name="offsets" format="ascii">
          2 4 6 8 10 12 14 16 18 20 22 24 26 28 30 32 34 36 38 40 42 44 46 48 50 52 54 56 58 60 62 64 66 68 70 72 74 76 78 80 82 84 86 88 90 92 94 96 98 100 102 104 106 108 110 112 114 116 118 120 122 124 126 128 130 132 134 136 138 140 142 144 146 148 150 152 154 156 158 160 162 164 166 168 170 172 174 176 178 180 182 184 186 188 190 192 194 196 198 200 202 204 206 208 210 212 214 216 218 220 222 224 226 228 230 232 234 236 238 240 242 244 246 248 250 252 254 
        </DataArray>
        <DataArray type="Int32" Name="types" format="ascii">
          3 3 3 3 3 3 3 3 3 3 3 3 3 3 3 3 3 3 3 3 3 3 3 3 3 3 3 3 3 3 3 3 3 3 3 3 3 3 3 3 3 3 3 3 3 3 3 3 3 3 3 3 3 3 3 3 3 3 3 3 3 3 3 3 3 3 3 3 3 3 3 3 3 3 3 3 3 3 3 3 3 3 3 3 3 3 3 3 3 3 3 3 3 3 3 3 3 3 3 3 3 3 3 3 3 3 3 3 3 3 3 3 3 3 3 3 3 3 3 3 3 3 3 3 3 3 3         </DataArray>
      </Cells>
    </Piece>
  </UnstructuredGrid>
</VTKFile>
<!-- DATA


-->
