<?xml version="1.0"?>
<VTKFile type="UnstructuredGrid" version="0.1" byte_order="LittleEndian">
  <UnstructuredGrid>
    <Piece NumberOfPoints="128" NumberOfCells="127">
      <PointData Scalars="u">
        <DataArray type="Float32" Name="Y" NumberOfComponents="2">

0 0
0.11719610912920417 -0.018028135993924641
0.12574606694710591 -0.058641079351160467
0.13776005131923352 -0.096287728582241813
0.15258405358204322 -0.13013325254811023
0.16826534898432768 -0.16056447683780831
0.18610596948179689 -0.18635451390782487
0.20428849291356352 -0.2074319643018791
0.22132137110914746 -0.22468635868239945
0.23840116707933995 -0.23745505467280503
0.25354500938023861 -0.24726096229217626
0.2681605829420341 -0.25352007403640703
0.28077817973638658 -0.25817175991185143
0.29233673562710472 -0.26169492025321411
0.30372834622587275 -0.2633008058231977
0.31360511292753168 -0.26493491382177325
0.32316064591089394 -0.26691167618377276
0.33328348268437102 -0.26836606256992662
0.34308815899431599 -0.27124062945056143
0.35399769277211268 -0.27559080225429322
0.36648175838406249 -0.28078870884948981
0.3802105785469389 -0.28817238909526915
0.39621649874180237 -0.29811888742962478
0.41458268813388149 -0.30989545378723637
0.43496842522420881 -0.32425424126036129
0.457832132783141 -0.34170258724688191
0.4821258450772456 -0.36168125160700287
0.50733371024407992 -0.38363132642130771
0.53257823069571053 -0.40802048724537215
0.55530699487811419 -0.4340886967042985
0.57479112966317591 -0.45927886895662662
0.58777471829215866 -0.48426864144146348
0.59555976825754797 -0.50554645814337762
0.59646418801013978 -0.52387699047369596
0.58692407649124678 -0.53851456610614334
0.5711571805237502 -0.54305011360723399
0.54792901483342038 -0.53804054152563285
0.51310734526936719 -0.52302324526059463
0.47729972720584318 -0.4893629808629984
0.44041269898128577 -0.4395500848482537
0.39015002701406337 -0.38051729158859987
0.32396958483942179 -0.32092013340287234
0.26733281780784823 -0.25396116754355536
0.22300328228628855 -0.18355328370372162
0.18954634928176511 -0.11412368175109493
0.16801291512165784 -0.048940330690318758
0.1561746904543449 0.0087720805618134879
0.15218682327159017 0.057001290173353009
0.15390567588780246 0.09472866319971017
0.15945042695594236 0.12176116493497149
0.16681623222273764 0.13865825502608994
0.17464084293493495 0.14652461146360005
0.18174390741585975 0.14696410015254849
0.18741532345540063 0.14196615959044312
0.19171179358142826 0.13356597865251821
0.19481992859883729 0.12391498588046838
0.19670481225671987 0.11536418917062906
0.2006272595005244 0.10735683236600539
0.20473028787673145 0.10217098576653399
0.21287950277223561 0.098776302191258672
0.22380820096450976 0.10140755348388618
0.24228023789958736 0.11079173079579398
0.27110045521897669 0.12803529303736222
0.31363339487181163 0.1520613577888007
0.36998626903204773 0.18499614847607304
0.4446921854694747 0.22122513953653153
0.53602722224528265 0.26218187369613249
0.64604079264678793 0.30591378483664472
0.77597823208162664 0.35147065996922389
0.92704507067095543 0.39789240095651601
1.100219015335268 0.44442909433254979
1.2962680151780337 0.49021217157245145
1.515492362404353 0.53473965385836664
1.7578597936553924 0.57776140918211993
2.0229024001517737 0.61951098269301341
2.3097041689075586 0.66042187432798749
2.6167673202092891 0.70150021453727296
2.9421330004459048 0.74425430848380025
3.2837298640057062 0.78932267252915156
3.6395899663486211 0.83988522236981644
4.0082878660732035 0.89994414471926998
4.3879790883420355 0.97332150320277988
4.7761807808651593 1.064168317484564
5.1696327669723354 1.1770170348048057
5.5641231663424309 1.3163571701845813
5.9544147831204519 1.4862828003534705
6.3341805450480644 1.6905993672904369
6.6960156252394585 1.9323205342285126
7.032142017712613 2.2111896014170216
7.3355479595004418 2.5261687421572101
7.5977675845828632 2.8804261637832118
7.811091449076871 3.2713460222425454
7.9677791621456491 3.6946460743890381
8.0606373935745683 4.1440689588691848
8.0836430244049531 4.611350648114958
8.0325238573854012 5.086562406940967
7.905318129865738 5.5586189427587769
7.7027986264225321 6.0160146718104608
7.4285754682323812 6.4478710580605467
7.0889221155988871 6.8447444150538246
6.6933065730374981 7.1988849330082791
6.2527997290486645 7.5062734874647976
5.7775413894964487 7.7682635152319826
5.2739670791346986 7.9892791735984678
4.75781056774502 8.1692608871632437
4.2373261153754083 8.3156869233510307
3.7183392532141819 8.4379504136865791
3.2037395367213661 8.5458637052448871
2.6929885271408613 8.647916793475046
2.1849738035450859 8.7484907264914451
1.6801500982071165 8.8488251168672551
1.1642297872207523 8.9466492022549797
0.63394235981441305 9.0277935133757214
0.096915654745017593 9.0708354861300293
-0.44170680205416735 9.0495131232818302
-0.96427530637236869 8.9334218824498244
-1.4430343991341963 8.6939468088940952
-1.8540344233976254 8.3034000457377264
-2.1616781705377366 7.7396084068533142
-2.2784580231910292 7.0029017289205262
-2.1574658761181551 6.1529067447123085
-1.9927125450003074 5.1670908594822889
-1.7062896788374295 4.1047220067977657
-1.3268737750109312 2.9974183245405737
-0.8698111286121486 1.9239676217165009
-0.44990981908993133 0.97009088914895147
-0.13403656489759405 0.2782150017011904
0 0

        </DataArray>
        <DataArray type="Float32" Name="W" NumberOfComponents="2">

-28.143129175152609 8.9532312108075747
-28.135402908283172 8.954755388721237
-28.127764652086995 8.9566722623669026
-28.120231380642736 8.9589670887191186
-28.112818293146344 8.9616244533729184
-28.105539033812196 8.9646289316065211
-28.098403509710877 8.9679602741821025
-28.091421455486749 8.9716021853683365
-28.084601060935121 8.9755384118117139
-28.077946560392416 8.9797489156827925
-28.071462753062971 8.9842177006307669
-28.065150101818578 8.9889250682311115
-28.059010305663648 8.9938556746605229
-28.053040229608786 8.9989903878116237
-28.047234339633444 9.0043099603526375
-28.041590120564322 9.0098006944240652
-28.036099054981282 9.0154445186849603
-28.030750212786337 9.0212232430931181
-28.025536916224151 9.0271244784053959
-28.020444884433385 9.0331306061672052
-28.015458583430565 9.0392247461404907
-28.010566835357452 9.0453949978527266
-28.005751052626223 9.0516246844819239
-28.000990158596913 9.0578963911307522
-27.996270065130368 9.0641988444796446
-27.991567657294816 9.0705144984084711
-27.98685753982134 9.0768244114564869
-27.982122916000723 9.0831159781591548
-27.977337231654598 9.089368831156543
-27.972473101659066 9.0955609140416911
-27.967511721447018 9.1016754303987977
-27.962425519700574 9.1076866198923181
-27.95719766791137 9.1135751637867362
-27.951801932012646 9.1193104323816279
-27.946213362526773 9.1248581746765698
-27.94042012545582 9.1301920869254101
-27.934402168467678 9.1352714124595948
-27.928142174874299 9.1400496468909296
-27.921639143260773 9.1444919271539167
-27.914886705994604 9.1485456679500938
-27.907885603475194 9.1521537920267715
-27.900653873094203 9.1552738367842892
-27.893228684433623 9.1579002019124811
-27.885646918136484 9.1600324952387346
-27.877943432653396 9.161671050401651
-27.870152110672777 9.1628211032554159
-27.862304673495473 9.1634873734380751
-27.854431332271268 9.1636761867490133
-27.846560800812501 9.1633952101536629
-27.83872031336378 9.1626535129415778
-27.830935693855448 9.1614609203645792
-27.823231355637642 9.1598284274784945
-27.815630417023371 9.1577676197730042
-27.808154691026683 9.1552909090959602
-27.800824553857431 9.1524118339274079
-27.793659104931571 9.1491444559972717
-27.786675874858258 9.1455039399116398
-27.779889152286565 9.1415091076514798
-27.773315157748847 9.1371731738845696
-27.766966571906071 9.1325134953643126
-27.760859409720357 9.1275416600687791
-27.755003375780849 9.1222764117647053
-27.749406284847424 9.116736745294487
-27.74407335415896 9.1109423951917616
-27.739010954290862 9.1049103119490997
-27.734216322304555 9.0986633422497665
-27.72969454309963 9.0922161861655812
-27.725444761606472 9.085586645757628
-27.721464268750957 9.0787920724363591
-27.717748062558751 9.0718494916537473
-27.714288863738304 9.0647754123603974
-27.711076712061665 9.057585853760223
-27.708099735666636 9.0502958406490368
-27.70534382391671 9.0429194836026543
-27.702792692455315 9.035469889322858
-27.700427549029218 9.0279592372515669
-27.698228052881561 9.0203984737870506
-27.696172057369822 9.0127974857789486
-27.69423583962076 9.0051651527740795
-27.692399175585891 8.9975082898710657
-27.690635696203266 8.9898342684765407
-27.688917855988279 8.9821499188109879
-27.687217083667118 8.9744617787209826
-27.685503943965671 8.9667763776135292
-27.683747852340524 8.9591006562619384
-27.681918297809133 8.9514420783138213
-27.679984672212022 8.9438090631014049
-27.677916638182936 8.9362112991614779
-27.675684558725425 8.9286600241472982
-27.673266167358509 8.9211662511195193
-27.670634133441759 8.9137447201044342
-27.66776368280868 8.906411996246435
-27.664632608162314 8.8991865971604263
-27.661221610573488 8.892088930822867
-27.657514822038102 8.8851410346778774
-27.653500192218264 8.8783662255553608
-27.649169798345696 8.87178863712127
-27.644520011562623 8.8654326905468377
-27.639551531577176 8.8593225150442176
-27.634268784999634 8.8534818013934711
-27.628680585046791 8.8479325224314742
-27.622799183638435 8.8426949158487016
-27.616639654505953 8.8377873375311147
-27.610214594177368 8.8332328597407415
-27.603543683081433 8.8290466994153167
-27.596647800334992 8.8252425043094274
-27.589548547425828 8.8218328710805416
-27.582268043313363 8.8188297171759054
-27.574828725752973 8.8162450096554767
-27.5672535049437 8.8140910621394042
-27.559567984071045 8.8123719576756621
-27.55179583190078 8.811101070227604
-27.543962089125362 8.8102930912033237
-27.536094262660747 8.8099519112881737
-27.528220169826721 8.8100801338938481
-27.520367695846456 8.8106760402074773
-27.512562728332451 8.8117237128022463
-27.504829265153834 8.8132094703315325
-27.497187570300269 8.8151114125600234
-27.489654360980044 8.8174055005374914
-27.482169564350031 8.8198526662817702
-27.474770821328427 8.822548768467037
-27.467451007696255 8.8254523266562863
-27.460208792302513 8.8285444347013229
-27.452986156086357 8.8316821018370106
-27.445754326753242 8.8347986864867245
-27.438490097445115 8.8378392262798986
-27.431206696600412 8.8408339103293052

        </DataArray>
        <DataArray type="Float32" Name="u" NumberOfComponents="1">
          0 0.007874015748031496 0.015748031496062992 0.023622047244094488 0.031496062992125984 0.03937007874015748 0.047244094488188976 0.055118110236220472 0.062992125984251968 0.070866141732283464 0.07874015748031496 0.086614173228346455 0.094488188976377951 0.10236220472440945 0.11023622047244094 0.11811023622047244 0.12598425196850394 0.13385826771653545 0.14173228346456693 0.14960629921259844 0.15748031496062992 0.16535433070866143 0.17322834645669291 0.18110236220472442 0.1889763779527559 0.19685039370078741 0.20472440944881889 0.2125984251968504 0.22047244094488189 0.2283464566929134 0.23622047244094488 0.24409448818897639 0.25196850393700787 0.25984251968503935 0.26771653543307089 0.27559055118110237 0.28346456692913385 0.29133858267716534 0.29921259842519687 0.30708661417322836 0.31496062992125984 0.32283464566929132 0.33070866141732286 0.33858267716535434 0.34645669291338582 0.3543307086614173 0.36220472440944884 0.37007874015748032 0.37795275590551181 0.38582677165354329 0.39370078740157483 0.40157480314960631 0.40944881889763779 0.41732283464566927 0.42519685039370081 0.43307086614173229 0.44094488188976377 0.44881889763779526 0.45669291338582679 0.46456692913385828 0.47244094488188976 0.48031496062992124 0.48818897637795278 0.49606299212598426 0.50393700787401574 0.51181102362204722 0.51968503937007871 0.52755905511811019 0.53543307086614178 0.54330708661417326 0.55118110236220474 0.55905511811023623 0.56692913385826771 0.57480314960629919 0.58267716535433067 0.59055118110236215 0.59842519685039375 0.60629921259842523 0.61417322834645671 0.62204724409448819 0.62992125984251968 0.63779527559055116 0.64566929133858264 0.65354330708661412 0.66141732283464572 0.6692913385826772 0.67716535433070868 0.68503937007874016 0.69291338582677164 0.70078740157480313 0.70866141732283461 0.71653543307086609 0.72440944881889768 0.73228346456692917 0.74015748031496065 0.74803149606299213 0.75590551181102361 0.76377952755905509 0.77165354330708658 0.77952755905511806 0.78740157480314965 0.79527559055118113 0.80314960629921262 0.8110236220472441 0.81889763779527558 0.82677165354330706 0.83464566929133854 0.84251968503937003 0.85039370078740162 0.8582677165354331 0.86614173228346458 0.87401574803149606 0.88188976377952755 0.88976377952755903 0.89763779527559051 0.90551181102362199 0.91338582677165359 0.92125984251968507 0.92913385826771655 0.93700787401574803 0.94488188976377951 0.952755905511811 0.96062992125984248 0.96850393700787396 0.97637795275590555 0.98425196850393704 0.99212598425196852 1
        </DataArray>
      </PointData>
      <CellData Scalars="P">
        <DataArray type="Float32" Name="P" NumberOfComponents="1">
          0.020521451351654584 0.055787155650221368 0.093348114929924619 0.13843769275720966 0.19334096877909088 0.25573287333372191 0.33068155346629141 0.41865576984661962 0.51467580918758404 0.61991170344425317 0.72841292959732307 0.84054242894499465 0.94841698564900268 1.0493345019736027 1.1467582248931474 1.2339438529119819 1.3094831532452169 1.3771904650428117 1.4323491887238318 1.4765123400387463 1.5133295208595621 1.5432556802337376 1.5707545212087746 1.5989430412245507 1.6347180395177667 1.6856869313674372 1.7505420810052155 1.8416229424650328 1.9637813535933066 2.1062759717801609 2.2773519131254987 2.4584560668271251 2.6594936488601939 2.8717787363384297 3.0636816865656882 3.2392168191197719 3.3818370364275294 3.4513763136829962 3.4514788141694321 3.3751848902179735 3.2254672185203273 3.0446323309658654 2.8623410412918409 2.7042758054186726 2.5885816745310981 2.5316002902684218 2.5430931177960212 2.6265715204145321 2.7804008138405911 2.9996924846119586 3.2760234789255946 3.5992845684178709 3.9570676623858034 4.3351055367542353 4.7196039464755444 5.0960335481708672 5.44903159143142 5.782600293993319 6.0835123392257291 6.3498572591975 6.5525061820559776 6.6742946866853314 6.7042766250578669 6.6386003533262619 6.4755269229825716 6.2207228879871952 5.8785443111607103 5.4515299969722797 4.9441593186405592 4.3630612677707887 3.7187277695625838 3.0234660927612897 2.2936659461791762 1.5488617365667998 0.81335612052907513 0.11079064462534892 -0.53218448346101732 -1.0888812854031305 -1.5615499273140343 -1.9014271130131597 -2.0858676063865254 -2.0930344057745454 -1.9030851901520545 -1.4962447725188048 -0.86496808401802372 -0.0058302470906202207 1.0753319620326822 2.3617101098835476 3.7799081024557117 5.347993317779423 7.0229040000706258 8.756814510310349 10.496141219966614 12.182321617598175 13.755567873327784 15.158863406810925 16.342735982937164 17.269967838991167 17.920922402756535 18.291978796452437 18.402794605472092 18.294777383734399 18.022236223543516 17.640703202038836 17.214950489298563 16.815213247321005 16.510405545453178 16.360491576702469 16.407852727699261 16.663177708973439 17.129858930164691 17.757959564786333 18.410332097761032 18.917202772899895 19.059894230857573 18.600613734037758 17.326055627604767 15.067197417079333 11.700632783112148 9.9019085194721495 6.2167477789703049 2.6370931605000689 -1.0051097523394543 -1.9462570044761907 -1.5783679519937674 -0.41782505593661878 -0.020900994433786263
        </DataArray>
      </CellData>
      <Points>
        <DataArray type="Float32" NumberOfComponents="3" format="ascii">
          -28.143129175152609 8.9532312108075747 0
          -28.135402908283172 8.954755388721237 0
          -28.127764652086995 8.9566722623669026 0
          -28.120231380642736 8.9589670887191186 0
          -28.112818293146344 8.9616244533729184 0
          -28.105539033812196 8.9646289316065211 0
          -28.098403509710877 8.9679602741821025 0
          -28.091421455486749 8.9716021853683365 0
          -28.084601060935121 8.9755384118117139 0
          -28.077946560392416 8.9797489156827925 0
          -28.071462753062971 8.9842177006307669 0
          -28.065150101818578 8.9889250682311115 0
          -28.059010305663648 8.9938556746605229 0
          -28.053040229608786 8.9989903878116237 0
          -28.047234339633444 9.0043099603526375 0
          -28.041590120564322 9.0098006944240652 0
          -28.036099054981282 9.0154445186849603 0
          -28.030750212786337 9.0212232430931181 0
          -28.025536916224151 9.0271244784053959 0
          -28.020444884433385 9.0331306061672052 0
          -28.015458583430565 9.0392247461404907 0
          -28.010566835357452 9.0453949978527266 0
          -28.005751052626223 9.0516246844819239 0
          -28.000990158596913 9.0578963911307522 0
          -27.996270065130368 9.0641988444796446 0
          -27.991567657294816 9.0705144984084711 0
          -27.98685753982134 9.0768244114564869 0
          -27.982122916000723 9.0831159781591548 0
          -27.977337231654598 9.089368831156543 0
          -27.972473101659066 9.0955609140416911 0
          -27.967511721447018 9.1016754303987977 0
          -27.962425519700574 9.1076866198923181 0
          -27.95719766791137 9.1135751637867362 0
          -27.951801932012646 9.1193104323816279 0
          -27.946213362526773 9.1248581746765698 0
          -27.94042012545582 9.1301920869254101 0
          -27.934402168467678 9.1352714124595948 0
          -27.928142174874299 9.1400496468909296 0
          -27.921639143260773 9.1444919271539167 0
          -27.914886705994604 9.1485456679500938 0
          -27.907885603475194 9.1521537920267715 0
          -27.900653873094203 9.1552738367842892 0
          -27.893228684433623 9.1579002019124811 0
          -27.885646918136484 9.1600324952387346 0
          -27.877943432653396 9.161671050401651 0
          -27.870152110672777 9.1628211032554159 0
          -27.862304673495473 9.1634873734380751 0
          -27.854431332271268 9.1636761867490133 0
          -27.846560800812501 9.1633952101536629 0
          -27.83872031336378 9.1626535129415778 0
          -27.830935693855448 9.1614609203645792 0
          -27.823231355637642 9.1598284274784945 0
          -27.815630417023371 9.1577676197730042 0
          -27.808154691026683 9.1552909090959602 0
          -27.800824553857431 9.1524118339274079 0
          -27.793659104931571 9.1491444559972717 0
          -27.786675874858258 9.1455039399116398 0
          -27.779889152286565 9.1415091076514798 0
          -27.773315157748847 9.1371731738845696 0
          -27.766966571906071 9.1325134953643126 0
          -27.760859409720357 9.1275416600687791 0
          -27.755003375780849 9.1222764117647053 0
          -27.749406284847424 9.116736745294487 0
          -27.74407335415896 9.1109423951917616 0
          -27.739010954290862 9.1049103119490997 0
          -27.734216322304555 9.0986633422497665 0
          -27.72969454309963 9.0922161861655812 0
          -27.725444761606472 9.085586645757628 0
          -27.721464268750957 9.0787920724363591 0
          -27.717748062558751 9.0718494916537473 0
          -27.714288863738304 9.0647754123603974 0
          -27.711076712061665 9.057585853760223 0
          -27.708099735666636 9.0502958406490368 0
          -27.70534382391671 9.0429194836026543 0
          -27.702792692455315 9.035469889322858 0
          -27.700427549029218 9.0279592372515669 0
          -27.698228052881561 9.0203984737870506 0
          -27.696172057369822 9.0127974857789486 0
          -27.69423583962076 9.0051651527740795 0
          -27.692399175585891 8.9975082898710657 0
          -27.690635696203266 8.9898342684765407 0
          -27.688917855988279 8.9821499188109879 0
          -27.687217083667118 8.9744617787209826 0
          -27.685503943965671 8.9667763776135292 0
          -27.683747852340524 8.9591006562619384 0
          -27.681918297809133 8.9514420783138213 0
          -27.679984672212022 8.9438090631014049 0
          -27.677916638182936 8.9362112991614779 0
          -27.675684558725425 8.9286600241472982 0
          -27.673266167358509 8.9211662511195193 0
          -27.670634133441759 8.9137447201044342 0
          -27.66776368280868 8.906411996246435 0
          -27.664632608162314 8.8991865971604263 0
          -27.661221610573488 8.892088930822867 0
          -27.657514822038102 8.8851410346778774 0
          -27.653500192218264 8.8783662255553608 0
          -27.649169798345696 8.87178863712127 0
          -27.644520011562623 8.8654326905468377 0
          -27.639551531577176 8.8593225150442176 0
          -27.634268784999634 8.8534818013934711 0
          -27.628680585046791 8.8479325224314742 0
          -27.622799183638435 8.8426949158487016 0
          -27.616639654505953 8.8377873375311147 0
          -27.610214594177368 8.8332328597407415 0
          -27.603543683081433 8.8290466994153167 0
          -27.596647800334992 8.8252425043094274 0
          -27.589548547425828 8.8218328710805416 0
          -27.582268043313363 8.8188297171759054 0
          -27.574828725752973 8.8162450096554767 0
          -27.5672535049437 8.8140910621394042 0
          -27.559567984071045 8.8123719576756621 0
          -27.55179583190078 8.811101070227604 0
          -27.543962089125362 8.8102930912033237 0
          -27.536094262660747 8.8099519112881737 0
          -27.528220169826721 8.8100801338938481 0
          -27.520367695846456 8.8106760402074773 0
          -27.512562728332451 8.8117237128022463 0
          -27.504829265153834 8.8132094703315325 0
          -27.497187570300269 8.8151114125600234 0
          -27.489654360980044 8.8174055005374914 0
          -27.482169564350031 8.8198526662817702 0
          -27.474770821328427 8.822548768467037 0
          -27.467451007696255 8.8254523266562863 0
          -27.460208792302513 8.8285444347013229 0
          -27.452986156086357 8.8316821018370106 0
          -27.445754326753242 8.8347986864867245 0
          -27.438490097445115 8.8378392262798986 0
          -27.431206696600412 8.8408339103293052 0
        </DataArray>
      </Points>
      <Cells>
        <DataArray type="Int32" Name="connectivity" format="ascii">
          0 1 1 2 2 3 3 4 4 5 5 6 6 7 7 8 8 9 9 10 10 11 11 12 12 13 13 14 14 15 15 16 16 17 17 18 18 19 19 20 20 21 21 22 22 23 23 24 24 25 25 26 26 27 27 28 28 29 29 30 30 31 31 32 32 33 33 34 34 35 35 36 36 37 37 38 38 39 39 40 40 41 41 42 42 43 43 44 44 45 45 46 46 47 47 48 48 49 49 50 50 51 51 52 52 53 53 54 54 55 55 56 56 57 57 58 58 59 59 60 60 61 61 62 62 63 63 64 64 65 65 66 66 67 67 68 68 69 69 70 70 71 71 72 72 73 73 74 74 75 75 76 76 77 77 78 78 79 79 80 80 81 81 82 82 83 83 84 84 85 85 86 86 87 87 88 88 89 89 90 90 91 91 92 92 93 93 94 94 95 95 96 96 97 97 98 98 99 99 100 100 101 101 102 102 103 103 104 104 105 105 106 106 107 107 108 108 109 109 110 110 111 111 112 112 113 113 114 114 115 115 116 116 117 117 118 118 119 119 120 120 121 121 122 122 123 123 124 124 125 125 126 126 127 
        </DataArray>
        <DataArray type="Int32" Name="offsets" format="ascii">
          2 4 6 8 10 12 14 16 18 20 22 24 26 28 30 32 34 36 38 40 42 44 46 48 50 52 54 56 58 60 62 64 66 68 70 72 74 76 78 80 82 84 86 88 90 92 94 96 98 100 102 104 106 108 110 112 114 116 118 120 122 124 126 128 130 132 134 136 138 140 142 144 146 148 150 152 154 156 158 160 162 164 166 168 170 172 174 176 178 180 182 184 186 188 190 192 194 196 198 200 202 204 206 208 210 212 214 216 218 220 222 224 226 228 230 232 234 236 238 240 242 244 246 248 250 252 254 
        </DataArray>
        <DataArray type="Int32" Name="types" format="ascii">
          3 3 3 3 3 3 3 3 3 3 3 3 3 3 3 3 3 3 3 3 3 3 3 3 3 3 3 3 3 3 3 3 3 3 3 3 3 3 3 3 3 3 3 3 3 3 3 3 3 3 3 3 3 3 3 3 3 3 3 3 3 3 3 3 3 3 3 3 3 3 3 3 3 3 3 3 3 3 3 3 3 3 3 3 3 3 3 3 3 3 3 3 3 3 3 3 3 3 3 3 3 3 3 3 3 3 3 3 3 3 3 3 3 3 3 3 3 3 3 3 3 3 3 3 3 3 3         </DataArray>
      </Cells>
    </Piece>
  </UnstructuredGrid>
</VTKFile>
<!-- DATA


-->
