<?xml version="1.0"?>
<VTKFile type="UnstructuredGrid" version="0.1" byte_order="LittleEndian">
  <UnstructuredGrid>
    <Piece NumberOfPoints="128" NumberOfCells="127">
      <PointData Scalars="u">
        <DataArray type="Float32" Name="Y" NumberOfComponents="2">

0 0
0.011439009156296873 0.0043922223564839815
0.038658804407637547 0.014246615823773989
0.075529338919858344 0.028013802794062792
0.11645949596476601 0.044940268590044193
0.15653712287089155 0.064350583531301644
0.19156920251939721 0.085334949985376024
0.21815016968109002 0.10653963807641058
0.23375872337869086 0.12607086435131915
0.23686910126253927 0.14151681552526221
0.22705090774312089 0.15008372902005818
0.20502487588678781 0.14883007716899629
0.17264245572498893 0.13496939984921205
0.13276568353291762 0.1061999967600803
0.089039436999415397 0.061011976726365082
0.04556803121263301 -0.0010779215149498745
0.0065278232698419312 -0.079404327638834413
-0.024237663505224293 -0.17216741866820109
-0.043587394299780466 -0.27658433386191172
-0.049368705313194448 -0.389156189938835
-0.040584418054082361 -0.50601089413750888
-0.017425894887016378 -0.62327203288996447
0.018821956540448225 -0.73740399261227085
0.065979358443413724 -0.84549227007287342
0.12123752071150656 -0.94543283434043446
0.18145070417891179 -1.0360216267957654
0.24341616163797111 -1.1169511606182791
0.30411145279194973 -1.1887329867066498
0.36086902570196183 -1.2525711586780834
0.41147842692962522 -1.3102126915802019
0.45421522156057342 -1.3637972586541869
0.48780178174003708 -1.4157213883017943
0.51130859453449562 -1.4685236626621767
0.52400645111501276 -1.5247881589262013
0.52518109592396123 -1.5870546593822286
0.51392408200270423 -1.6577169082197576
0.48891798399789821 -1.7388854129641738
0.44824154586615761 -1.8321902581375236
0.38923068577899372 -1.938503772246517
0.30844314798986511 -2.0575745574700002
0.20178491853252711 -2.1875850053630468
0.064860409829813837 -2.3246745057547749
-0.10640053829086328 -2.4625082307418182
-0.31481435279455716 -2.5920109314756057
-0.56074258264925436 -2.7014160403687928
-0.84072310163508668 -2.7767873185438972
-1.146129378354801 -2.8031361284195673
-1.4621358928503867 -2.7661687493818792
-1.7673090829763887 -2.6545539200129555
-2.0341071850726951 -2.4624208480545908
-2.2304339277296972 -2.1916267225475816
-2.2639883746071363 -1.9205929059578337
-2.1202571166247686 -1.7183806517634548
-1.9084919640380176 -1.4837092298039438
-1.6383445808743686 -1.228101799655309
-1.319968216906048 -0.95989883353699923
-0.96373046718106337 -0.68464266991994538
-0.57995998435152341 -0.40554959877083169
-0.17874984696616611 -0.12402721416688968
0.23018055440482194 0.15979838795464113
0.63757627420963137 0.44657335602522968
1.0347078975845845 0.73724556560360754
1.4134221221362184 1.0326480895091656
1.7661988110811002 1.333148019523221
2.0862268040085961 1.6383694857087985
2.3675045749507797 1.9469979738328294
2.6049649762626337 2.256671357602015
2.7946165886381364 2.5639607843012051
2.9336883754742287 2.8644412261907535
3.0207601416252414 3.1528469950982823
3.0558593533839673 3.4233020390295761
3.040505613191669 3.6696089796149916
2.9776876058563966 3.8855754538166209
2.8717633431573195 4.0653523464713857
2.7282823125186964 4.2037567963487952
2.5537366233258694 4.2965539797451981
2.3552562068984981 4.3406757206677282
2.1402693833723703 4.3343605304579489
1.9161537532320907 4.277207881515948
1.6899029554426028 4.1701482180437965
1.4678324248366943 4.0153381986754297
1.2553424300156035 3.815996920070559
1.056750265415247 3.5762027104181571
0.87519652884566213 3.3006712717473392
0.71262389918584979 2.9945346797488255
0.56982147181052822 2.6631375410761913
0.44652394384781152 2.3118621674355411
0.34155287339027934 1.9459897000523856
0.25298671434830472 1.570599366889617
0.17834701778001147 1.1905039767213557
0.1147896785844713 0.81021665476624938
0.059291992290161827 0.43394182721306629
0.0088282340992744072 0.065582543718974221
-0.039471748389469333 -0.29124373763555961
-0.088184948457482648 -0.6331879729695975
-0.1394814636266358 -0.9571566654337752
-0.19503654341705703 -1.2603072905155812
-0.25596962070217383 -1.5400541198332405
-0.32281086435270923 -1.7940846954030811
-0.39549511343670185 -2.0203855307313265
-0.47338230515740609 -2.2172742481395455
-0.55530267678537792 -2.3834344036107704
-0.63962413699209297 -2.5179487651162638
-0.72433833083354959 -2.6203268201999856
-0.80716115557949053 -2.6905227705050567
-0.88564291493802372 -2.7289411578578471
-0.95728300400189004 -2.7364284541940456
-1.0196440496221932 -2.7142503036285266
-1.0704607926191143 -2.6640554893354418
-1.1077396583308865 -2.5878289738669249
-1.1298458430423139 -2.4878374160401115
-1.1355757434297573 -2.3665713194454354
-1.1242135606916266 -2.2266883725676117
-1.0955718087818298 -2.0709625904445468
-1.0500161584831602 -1.9022435809764004
-0.98847549742615382 -1.7234296707323344
-0.91243826502879466 -1.5374577731865193
-0.82393606008789488 -1.3473117973142286
-0.72551529046496277 -1.1560500947882515
-0.62019735955605904 -0.9668509323285448
-0.51142771386994212 -0.78307325269713512
-0.40301419109738917 -0.60832805979874216
-0.29905569234224427 -0.4465536660260167
-0.20386341685217646 -0.3020858548583541
-0.12187883824131431 -0.17971187833595914
-0.057595241115033113 -0.084695322808868212
-0.015492760027301709 -0.022757464194829272
0 0

        </DataArray>
        <DataArray type="Float32" Name="W" NumberOfComponents="2">

-1.7592464829778691 0.79735833839007719
-1.7565891733777377 0.78994626328478201
-1.7538977645681242 0.78254650350710941
-1.751116068729035 0.7751802088158396
-1.7481888652188444 0.76787051394924666
-1.7450632563584043 0.76064342715485533
-1.7416900270869873 0.75352854032504479
-1.7380249979047553 0.74655946977091148
-1.7340303404932502 0.73977395575060723
-1.7296758042219524 0.73321357358856476
-1.7249397835241103 0.72692303930866098
-1.7198101448399601 0.72094912685617163
-1.7142847306869744 0.71533924967189011
-1.7083714692280527 0.71013979299529439
-1.7020880403905985 0.70539431061613733
-1.6954610820043035 0.70114171685343019
-1.6885249576042121 0.69741460835067515
-1.6813201463241578 0.69423783964207997
-1.6738913492542333 0.69162745233050915
-1.6662854310723718 0.68959002317028295
-1.6585493276034757 0.68812245596391564
-1.6507280482232924 0.68721220126079252
-1.6428628878519198 0.68683785143905118
-1.6349899395544116 0.68697003084120645
-1.6271389694166398 0.68757248360779422
-1.6193326845894978 0.68860325635447028
-1.611586396941489 0.69001587795294672
-1.6039080614226888 0.69176045236065109
-1.5962986516168749 0.6937846000511384
-1.5887528254383689 0.69603420638224733
-1.5812598308940489 0.69845395875193172
-1.5738046039261375 0.70098767671752404
-1.5663690158064745 0.70357845909781813
-1.558933234461745 0.70616868872223559
-1.5514771706513957 0.70869994867086394
-1.5439819845112586 0.71111291357170237
-1.5364316293540301 0.71334728588197738
-1.5288144068868317 0.71534185008204965
-1.5211245006673735 0.71703471711176781
-1.5133634426207532 0.71836382658056808
-1.5055414512680434 0.71926776427169259
-1.4976785611703547 0.71968693584928067
-1.4898054430919769 0.71956511288009772
-1.4819637968220511 0.71885133290234848
-1.4742061880549091 0.71750209074359872
-1.4665952029583849 0.71548370476135237
-1.4592018152995074 0.71277468305463709
-1.4521029066224789 0.70936785848190054
-1.4453779523825403 0.70527201883253143
-1.4391049830202676 0.70051274378906825
-1.4333560379376968 0.69513218740578875
-1.428192433203282 0.68918762332584305
-1.4231692010481356 0.6831239859740893
-1.4182774293884375 0.67695381243126718
-1.4135039880533844 0.67069165214842985
-1.4088321272172748 0.66435335252163696
-1.4042421069178359 0.65795554179931182
-1.3997118398538286 0.6515152854769225
-1.395217531760399 0.64504988690748499
-1.3907343071734168 0.63857680005058604
-1.386236812022033 0.63211362167284868
-1.3816997874245487 0.62567813142572604
-1.377098610902008 0.61928835062841148
-1.3724098018747686 0.61296259393094765
-1.3676114879057224 0.60671949208437215
-1.3626838269904482 0.60057796864487489
-1.3576093796536484 0.5945571584793119
-1.3523734231174969 0.58867626131565565
-1.3469641987775614 0.58295432915288181
-1.341373084016757 0.57740999190417608
-1.3355946802676548 0.57206113091528843
-1.3296268113189511 0.56692451463666282
-1.3234704291073103 0.56201541437027569
-1.3171294284227637 0.55734722032534223
-1.3106103767116664 0.55293107895458271
-1.3039221700036305 0.54877557159886303
-1.2970756303915076 0.54488645191223473
-1.2900830639626564 0.54126645562245923
-1.2829578002274027 0.53791519131039178
-1.2757137346907275 0.5348291155736542
-1.2683648952295719 0.53200159071522712
-1.2609250505201193 0.52942301846149964
-1.2534073752077832 0.52708103955476127
-1.2458241822247484 0.52496078662021262
-1.23818672806624 0.52304517655111016
-1.2305050923413525 0.52131522870888825
-1.2227881288493856 0.51975039629903641
-1.2150434820317459 0.51832890008280796
-1.2072776600407786 0.51702805581405187
-1.1994961538827529 0.51582458915497964
-1.1917035910899449 0.51469493407162492
-1.1839039120640138 0.51361551264693683
-1.1761005574927126 0.51256299575302322
-1.1682966559536863 0.51151454503709293
-1.1604952018723209 0.51044803720033738
-1.1526992153030298 0.50934227163527901
-1.1449118764820887 0.50817716221979758
-1.1371366296987937 0.5069339135517914
-1.1293772527047032 0.50559518126358372
-1.121637889587082 0.50414521539470436
-1.1139230467303536 0.50256998522947294
-1.1062375531320463 0.50085728360663928
-1.0985864878757814 0.49899680854162326
-1.0909750789384483 0.49698022009772913
-1.083408578667816 0.49480117080049618
-1.0758921221628694 0.49245530847920049
-1.0684305753867946 0.4899402511864418
-1.0610283801234928 0.4872555347171047
-1.0536894028547235 0.48440253413766626
-1.0464167943089302 0.4813843615599957
-1.0392128658554158 0.47820574307133795
-1.0320789881434089 0.47487287819868335
-1.0250155164767327 0.47139328549459708
-1.0180217464335073 0.46777563775768888
-1.0110959022422841 0.46402959004116651
-1.0042351594547634 0.46016560297512438
-0.99743570253859681 0.45619476306885104
-0.99069281716281066 0.4521286006213362
-0.98400101615930669 0.44797890471858548
-0.97735419740254326 0.44375753361591636
-0.9707458311388294 0.43947621768582112
-0.96416917360611165 0.43514635116408545
-0.95761750312182126 0.43077876826817513
-0.95108437421649861 0.4263834990224708
-0.94456388492983112 0.42196950044022191
-0.93805095218373724 0.41754435971436366
-0.93154159036787787 0.41311396787552512
-0.9250331891101029 0.40868216507323191

        </DataArray>
        <DataArray type="Float32" Name="u" NumberOfComponents="1">
          0 0.007874015748031496 0.015748031496062992 0.023622047244094488 0.031496062992125984 0.03937007874015748 0.047244094488188976 0.055118110236220472 0.062992125984251968 0.070866141732283464 0.07874015748031496 0.086614173228346455 0.094488188976377951 0.10236220472440945 0.11023622047244094 0.11811023622047244 0.12598425196850394 0.13385826771653545 0.14173228346456693 0.14960629921259844 0.15748031496062992 0.16535433070866143 0.17322834645669291 0.18110236220472442 0.1889763779527559 0.19685039370078741 0.20472440944881889 0.2125984251968504 0.22047244094488189 0.2283464566929134 0.23622047244094488 0.24409448818897639 0.25196850393700787 0.25984251968503935 0.26771653543307089 0.27559055118110237 0.28346456692913385 0.29133858267716534 0.29921259842519687 0.30708661417322836 0.31496062992125984 0.32283464566929132 0.33070866141732286 0.33858267716535434 0.34645669291338582 0.3543307086614173 0.36220472440944884 0.37007874015748032 0.37795275590551181 0.38582677165354329 0.39370078740157483 0.40157480314960631 0.40944881889763779 0.41732283464566927 0.42519685039370081 0.43307086614173229 0.44094488188976377 0.44881889763779526 0.45669291338582679 0.46456692913385828 0.47244094488188976 0.48031496062992124 0.48818897637795278 0.49606299212598426 0.50393700787401574 0.51181102362204722 0.51968503937007871 0.52755905511811019 0.53543307086614178 0.54330708661417326 0.55118110236220474 0.55905511811023623 0.56692913385826771 0.57480314960629919 0.58267716535433067 0.59055118110236215 0.59842519685039375 0.60629921259842523 0.61417322834645671 0.62204724409448819 0.62992125984251968 0.63779527559055116 0.64566929133858264 0.65354330708661412 0.66141732283464572 0.6692913385826772 0.67716535433070868 0.68503937007874016 0.69291338582677164 0.70078740157480313 0.70866141732283461 0.71653543307086609 0.72440944881889768 0.73228346456692917 0.74015748031496065 0.74803149606299213 0.75590551181102361 0.76377952755905509 0.77165354330708658 0.77952755905511806 0.78740157480314965 0.79527559055118113 0.80314960629921262 0.8110236220472441 0.81889763779527558 0.82677165354330706 0.83464566929133854 0.84251968503937003 0.85039370078740162 0.8582677165354331 0.86614173228346458 0.87401574803149606 0.88188976377952755 0.88976377952755903 0.89763779527559051 0.90551181102362199 0.91338582677165359 0.92125984251968507 0.92913385826771655 0.93700787401574803 0.94488188976377951 0.952755905511811 0.96062992125984248 0.96850393700787396 0.97637795275590555 0.98425196850393704 0.99212598425196852 1
        </DataArray>
      </PointData>
      <CellData Scalars="P">
        <DataArray type="Float32" Name="P" NumberOfComponents="1">
          0.0031889178859073795 0.023286541111240757 0.0873486130035869 0.20809914284130357 0.38319644759921645 0.59810138074896235 0.82918638363926422 1.0469589539426527 1.2192907943520399 1.314538888013834 1.3044270346755618 1.1665384298582828 0.88626390098993091 0.45806565542436556 -0.11404316532233347 -0.8168395752923806 -1.6290112288479204 -2.52293536828188 -3.4669272131237157 -4.4277237507708298 -5.3729537503701943 -6.2733604596293819 -7.1045851508852333 -7.8483787554822406 -8.493174890845733 -9.0340209342987059 -9.4719171786761898 -9.8126536522641619 -10.065259477871441 -10.240193062536324 -10.347407076237737 -10.394424780827636 -10.384567943160175 -10.315483996537102 -10.178131882529739 -9.9564001837500626 -9.6275430951132428 -9.1636220814847551 -8.5341237827052083 -7.7098758809852397 -6.6682894112213829 -5.3998068949924569 -3.9152243302035195 -2.2532857063759151 -0.48764307235845034 1.2680210712932851 2.8581271166778399 4.0880472528741532 4.7329080525881944 4.5530468436185485 3.3159971118668397 2.7559675558044967 2.0263101258629241 1.2260611728061366 0.44588363299537753 -0.23671867787032427 -0.75991487204740626 -1.0784623606030506 -1.1635381212247307 -1.0018659931649698 -0.59440752073710112 0.045207847089877899 0.89240833562728517 1.913507013404838 3.067607997452424 4.3085837276532839 5.5871156056621194 6.8527796253686359 8.0561409835492945 9.1508013944452973 10.095324361539685 10.854951049110252 11.403015836859078 11.721977966313005 11.804004018127129 11.651063621308239 11.274534551689467 10.694348971904802 9.9377454676329577 9.0377177307067615 8.0312673916014852 6.9575743446263285 5.8561933015403538 4.7653719949587554 3.7205670834342581 2.7532113876351945 1.8897634449893475 1.1510497822054579 0.55189327519801068 0.10100819055325426 -0.19886602864761893 -0.35062498427934513 -0.36228822936831079 -0.24635149287814737 -0.019035689337752265 0.30053545264932491 0.69119898754475018 1.1306289717335916 1.5961981598575143 2.0657995829436127 2.5186042970392211 2.9357340473389599 3.3008307758585715 3.6005088393068596 3.8246803768420818 3.9667492170373064 4.0236736771100414 3.9959031790694022 3.8871974028896319 3.7043394240363248 3.4567557987547302 3.1560569132951497 2.8155103571283187 2.4494590708055703 2.0726951847623751 1.6998005567365975 1.3444668398252355 1.0188122428638957 0.73271961009785602 0.49323139515035153 0.30405143383940836 0.16522039284010889 0.073049811827737843 0.020416189193103149 -0.0024720885039069907 -0.006720727492513119 -0.0027081582847381311
        </DataArray>
      </CellData>
      <Points>
        <DataArray type="Float32" NumberOfComponents="3" format="ascii">
          -1.7592464829778691 0.79735833839007719 0
          -1.7565891733777377 0.78994626328478201 0
          -1.7538977645681242 0.78254650350710941 0
          -1.751116068729035 0.7751802088158396 0
          -1.7481888652188444 0.76787051394924666 0
          -1.7450632563584043 0.76064342715485533 0
          -1.7416900270869873 0.75352854032504479 0
          -1.7380249979047553 0.74655946977091148 0
          -1.7340303404932502 0.73977395575060723 0
          -1.7296758042219524 0.73321357358856476 0
          -1.7249397835241103 0.72692303930866098 0
          -1.7198101448399601 0.72094912685617163 0
          -1.7142847306869744 0.71533924967189011 0
          -1.7083714692280527 0.71013979299529439 0
          -1.7020880403905985 0.70539431061613733 0
          -1.6954610820043035 0.70114171685343019 0
          -1.6885249576042121 0.69741460835067515 0
          -1.6813201463241578 0.69423783964207997 0
          -1.6738913492542333 0.69162745233050915 0
          -1.6662854310723718 0.68959002317028295 0
          -1.6585493276034757 0.68812245596391564 0
          -1.6507280482232924 0.68721220126079252 0
          -1.6428628878519198 0.68683785143905118 0
          -1.6349899395544116 0.68697003084120645 0
          -1.6271389694166398 0.68757248360779422 0
          -1.6193326845894978 0.68860325635447028 0
          -1.611586396941489 0.69001587795294672 0
          -1.6039080614226888 0.69176045236065109 0
          -1.5962986516168749 0.6937846000511384 0
          -1.5887528254383689 0.69603420638224733 0
          -1.5812598308940489 0.69845395875193172 0
          -1.5738046039261375 0.70098767671752404 0
          -1.5663690158064745 0.70357845909781813 0
          -1.558933234461745 0.70616868872223559 0
          -1.5514771706513957 0.70869994867086394 0
          -1.5439819845112586 0.71111291357170237 0
          -1.5364316293540301 0.71334728588197738 0
          -1.5288144068868317 0.71534185008204965 0
          -1.5211245006673735 0.71703471711176781 0
          -1.5133634426207532 0.71836382658056808 0
          -1.5055414512680434 0.71926776427169259 0
          -1.4976785611703547 0.71968693584928067 0
          -1.4898054430919769 0.71956511288009772 0
          -1.4819637968220511 0.71885133290234848 0
          -1.4742061880549091 0.71750209074359872 0
          -1.4665952029583849 0.71548370476135237 0
          -1.4592018152995074 0.71277468305463709 0
          -1.4521029066224789 0.70936785848190054 0
          -1.4453779523825403 0.70527201883253143 0
          -1.4391049830202676 0.70051274378906825 0
          -1.4333560379376968 0.69513218740578875 0
          -1.428192433203282 0.68918762332584305 0
          -1.4231692010481356 0.6831239859740893 0
          -1.4182774293884375 0.67695381243126718 0
          -1.4135039880533844 0.67069165214842985 0
          -1.4088321272172748 0.66435335252163696 0
          -1.4042421069178359 0.65795554179931182 0
          -1.3997118398538286 0.6515152854769225 0
          -1.395217531760399 0.64504988690748499 0
          -1.3907343071734168 0.63857680005058604 0
          -1.386236812022033 0.63211362167284868 0
          -1.3816997874245487 0.62567813142572604 0
          -1.377098610902008 0.61928835062841148 0
          -1.3724098018747686 0.61296259393094765 0
          -1.3676114879057224 0.60671949208437215 0
          -1.3626838269904482 0.60057796864487489 0
          -1.3576093796536484 0.5945571584793119 0
          -1.3523734231174969 0.58867626131565565 0
          -1.3469641987775614 0.58295432915288181 0
          -1.341373084016757 0.57740999190417608 0
          -1.3355946802676548 0.57206113091528843 0
          -1.3296268113189511 0.56692451463666282 0
          -1.3234704291073103 0.56201541437027569 0
          -1.3171294284227637 0.55734722032534223 0
          -1.3106103767116664 0.55293107895458271 0
          -1.3039221700036305 0.54877557159886303 0
          -1.2970756303915076 0.54488645191223473 0
          -1.2900830639626564 0.54126645562245923 0
          -1.2829578002274027 0.53791519131039178 0
          -1.2757137346907275 0.5348291155736542 0
          -1.2683648952295719 0.53200159071522712 0
          -1.2609250505201193 0.52942301846149964 0
          -1.2534073752077832 0.52708103955476127 0
          -1.2458241822247484 0.52496078662021262 0
          -1.23818672806624 0.52304517655111016 0
          -1.2305050923413525 0.52131522870888825 0
          -1.2227881288493856 0.51975039629903641 0
          -1.2150434820317459 0.51832890008280796 0
          -1.2072776600407786 0.51702805581405187 0
          -1.1994961538827529 0.51582458915497964 0
          -1.1917035910899449 0.51469493407162492 0
          -1.1839039120640138 0.51361551264693683 0
          -1.1761005574927126 0.51256299575302322 0
          -1.1682966559536863 0.51151454503709293 0
          -1.1604952018723209 0.51044803720033738 0
          -1.1526992153030298 0.50934227163527901 0
          -1.1449118764820887 0.50817716221979758 0
          -1.1371366296987937 0.5069339135517914 0
          -1.1293772527047032 0.50559518126358372 0
          -1.121637889587082 0.50414521539470436 0
          -1.1139230467303536 0.50256998522947294 0
          -1.1062375531320463 0.50085728360663928 0
          -1.0985864878757814 0.49899680854162326 0
          -1.0909750789384483 0.49698022009772913 0
          -1.083408578667816 0.49480117080049618 0
          -1.0758921221628694 0.49245530847920049 0
          -1.0684305753867946 0.4899402511864418 0
          -1.0610283801234928 0.4872555347171047 0
          -1.0536894028547235 0.48440253413766626 0
          -1.0464167943089302 0.4813843615599957 0
          -1.0392128658554158 0.47820574307133795 0
          -1.0320789881434089 0.47487287819868335 0
          -1.0250155164767327 0.47139328549459708 0
          -1.0180217464335073 0.46777563775768888 0
          -1.0110959022422841 0.46402959004116651 0
          -1.0042351594547634 0.46016560297512438 0
          -0.99743570253859681 0.45619476306885104 0
          -0.99069281716281066 0.4521286006213362 0
          -0.98400101615930669 0.44797890471858548 0
          -0.97735419740254326 0.44375753361591636 0
          -0.9707458311388294 0.43947621768582112 0
          -0.96416917360611165 0.43514635116408545 0
          -0.95761750312182126 0.43077876826817513 0
          -0.95108437421649861 0.4263834990224708 0
          -0.94456388492983112 0.42196950044022191 0
          -0.93805095218373724 0.41754435971436366 0
          -0.93154159036787787 0.41311396787552512 0
          -0.9250331891101029 0.40868216507323191 0
        </DataArray>
      </Points>
      <Cells>
        <DataArray type="Int32" Name="connectivity" format="ascii">
          0 1 1 2 2 3 3 4 4 5 5 6 6 7 7 8 8 9 9 10 10 11 11 12 12 13 13 14 14 15 15 16 16 17 17 18 18 19 19 20 20 21 21 22 22 23 23 24 24 25 25 26 26 27 27 28 28 29 29 30 30 31 31 32 32 33 33 34 34 35 35 36 36 37 37 38 38 39 39 40 40 41 41 42 42 43 43 44 44 45 45 46 46 47 47 48 48 49 49 50 50 51 51 52 52 53 53 54 54 55 55 56 56 57 57 58 58 59 59 60 60 61 61 62 62 63 63 64 64 65 65 66 66 67 67 68 68 69 69 70 70 71 71 72 72 73 73 74 74 75 75 76 76 77 77 78 78 79 79 80 80 81 81 82 82 83 83 84 84 85 85 86 86 87 87 88 88 89 89 90 90 91 91 92 92 93 93 94 94 95 95 96 96 97 97 98 98 99 99 100 100 101 101 102 102 103 103 104 104 105 105 106 106 107 107 108 108 109 109 110 110 111 111 112 112 113 113 114 114 115 115 116 116 117 117 118 118 119 119 120 120 121 121 122 122 123 123 124 124 125 125 126 126 127 
        </DataArray>
        <DataArray type="Int32" Name="offsets" format="ascii">
          2 4 6 8 10 12 14 16 18 20 22 24 26 28 30 32 34 36 38 40 42 44 46 48 50 52 54 56 58 60 62 64 66 68 70 72 74 76 78 80 82 84 86 88 90 92 94 96 98 100 102 104 106 108 110 112 114 116 118 120 122 124 126 128 130 132 134 136 138 140 142 144 146 148 150 152 154 156 158 160 162 164 166 168 170 172 174 176 178 180 182 184 186 188 190 192 194 196 198 200 202 204 206 208 210 212 214 216 218 220 222 224 226 228 230 232 234 236 238 240 242 244 246 248 250 252 254 
        </DataArray>
        <DataArray type="Int32" Name="types" format="ascii">
          3 3 3 3 3 3 3 3 3 3 3 3 3 3 3 3 3 3 3 3 3 3 3 3 3 3 3 3 3 3 3 3 3 3 3 3 3 3 3 3 3 3 3 3 3 3 3 3 3 3 3 3 3 3 3 3 3 3 3 3 3 3 3 3 3 3 3 3 3 3 3 3 3 3 3 3 3 3 3 3 3 3 3 3 3 3 3 3 3 3 3 3 3 3 3 3 3 3 3 3 3 3 3 3 3 3 3 3 3 3 3 3 3 3 3 3 3 3 3 3 3 3 3 3 3 3 3         </DataArray>
      </Cells>
    </Piece>
  </UnstructuredGrid>
</VTKFile>
<!-- DATA


-->
