<?xml version="1.0"?>
<VTKFile type="UnstructuredGrid" version="0.1" byte_order="LittleEndian">
  <UnstructuredGrid>
    <Piece NumberOfPoints="128" NumberOfCells="127">
      <PointData Scalars="u">
        <DataArray type="Float32" Name="Y" NumberOfComponents="2">

0 0
0.14488738260015416 -0.10489702736291696
0.13305260646818329 -0.14489957988161115
0.12768323412282173 -0.18055578376898096
0.12742868067070046 -0.21294320910521358
0.13040840421028713 -0.24290849828527519
0.13774055687962661 -0.27097459157181064
0.14820043825777177 -0.29691510946994404
0.16038199181917207 -0.32092917210703031
0.17573562578858037 -0.34284118696846461
0.19207381137630136 -0.36275062538123498
0.21091367438274089 -0.3802804562576555
0.23007551063753603 -0.39598500193178482
0.25008145340597104 -0.4101106336348958
0.27201417065572581 -0.42200341463268398
0.29342312252186703 -0.43279040472494712
0.31544923479792625 -0.44269848171224085
0.33908406372455269 -0.4512537420226464
0.36240845467529098 -0.46024457794206181
0.38699012989077214 -0.47007740519467445
0.41400217827544672 -0.48039029794653509
0.44228233666246264 -0.49298375862364907
0.47316357072624676 -0.50833718337081246
0.50801732303334579 -0.52540870821665742
0.54541908880453827 -0.5458360671077499
0.58626251389582096 -0.56958195026147129
0.63092006592185867 -0.59492125349874803
0.67722836484463367 -0.62268763371987934
0.72557342087342958 -0.65117086087727816
0.77397477340573195 -0.68135772247091475
0.82169851007263239 -0.71263525556725804
0.86681997329708949 -0.74276349277312914
0.90639019228777951 -0.77115708895454027
0.93870262641289193 -0.79619189821525216
0.9620397852237873 -0.81734820390021901
0.97517021747595323 -0.83467953945662354
0.97644276442701172 -0.84656156103408153
0.9661311664943546 -0.85145935085799318
0.94452869826674435 -0.85060303805404369
0.91268023560055755 -0.84390609008804385
0.87176759985632535 -0.83108418430264563
0.82337284922452258 -0.8117261473808024
0.76883275397122108 -0.78572553907048304
0.71047239564564313 -0.75233145157860004
0.65018595595119966 -0.71143882977528805
0.58990093954750489 -0.66266064957011128
0.53266744104237518 -0.6048907996041516
0.48050048822346564 -0.53749682661251752
0.43584858314930514 -0.45868025764206388
0.38280675820893378 -0.37312434476301459
0.31494520816513577 -0.2871533984123808
0.26065820120606575 -0.19274080758691109
0.22085652132282968 -0.093528171375330746
0.19570381236302847 0.0067153087654152534
0.18481588040612498 0.10450628109052267
0.18691793183832706 0.1968887233734605
0.19966857929791151 0.28164949114404186
0.22355688605393498 0.35644217604404194
0.25421722081713549 0.4200249923658147
0.29214114773465472 0.47138992351886055
0.33242426492350241 0.51237710267977521
0.37576490597352169 0.54476252322942953
0.4215712201920444 0.57057982482061353
0.47066614408690732 0.59090894749790379
0.5209102485578524 0.60846240718326139
0.57611543031071644 0.62181101649918691
0.63390351369043885 0.63293057146931042
0.69566942942219612 0.64253687037287444
0.76260379940391831 0.65164690205005893
0.83610596088475775 0.6612015859918875
0.91792208257716235 0.67171356634071067
1.0097287040301293 0.68354895876335098
1.113278443669226 0.69677472359671488
1.2302157000706919 0.71128420377706825
1.3621348804098665 0.72650910925008139
1.5102422537884741 0.74183143731714563
1.6754919276296458 0.75648235764585192
1.8590481061221953 0.76855626175008995
2.0612134519333938 0.77907543566626203
2.2835950858834657 0.78749474885822379
2.5271532783186128 0.79379493945086088
2.792460222839805 0.79811619539470635
3.0796400329823554 0.80088140300022148
3.3882835042849475 0.80300670914132777
3.7174043514614898 0.80565828995678734
4.0653051393799871 0.8105529236609873
4.4296174924926097 0.81994811404232226
4.8075465157314854 0.83505566236219997
5.1960897328329603 0.85962892918334421
5.5923883626063828 0.89825022342231975
5.9929185740675308 0.95481598030504966
6.3934229084540144 1.033340943338698
6.7889826078755426 1.1376914368371549
7.174131395581945 1.2713652731312395
7.5430386840844843 1.4372693237173413
7.8897714976892264 1.6375263583109756
8.2085996151982688 1.8735025779905325
8.4943310515966495 2.1455676407906412
8.742840540549583 2.4528908577654867
8.9514189065585885 2.7943078452621304
9.1191190181501991 3.1685239174616004
9.2468642053394881 3.5746721207673211
9.3364775412181071 4.0148707052828803
9.3890405610501784 4.4927482424015661
9.4083381346868862 5.0063929201662054
9.3959152874961678 5.5596355024443467
9.3514106837655611 6.1574583177094517
9.271098752515206 6.8049082459470265
9.1463887945903686 7.5054505324826604
8.964681103969486 8.2563431056508545
8.7106755047063267 9.0477927538512635
8.3571766873165085 9.8674626784543484
7.8815423999234069 10.681760518860154
7.271102242886804 11.438904903006007
6.5190078881493738 12.077468167724021
5.6397203295211478 12.523102625242851
4.6721402030701258 12.700070190020238
3.6663326232307023 12.543992762961766
2.6920395042039456 12.006195699463387
1.8727242899485228 11.054911370415862
1.3027237075517051 9.7429099165981921
0.81612983274117512 8.1704351516160543
0.49166550670488746 6.419478084306566
0.29108288876964944 4.6167264630735376
0.1569184414377125 2.9147229198660933
0.054659837560962099 1.4598765375143916
-0.027839840942195056 0.41902215448779656
0 0

        </DataArray>
        <DataArray type="Float32" Name="W" NumberOfComponents="2">

-36.465772378689188 11.344069609331504
-36.458420269406631 11.341245238860903
-36.450909920401955 11.338873645876115
-36.443271096747068 11.336955999107275
-36.435532630842026 11.335491651769496
-36.427722363410872 11.334478228904715
-36.419867276117081 11.333909028776437
-36.41199274008887 11.333778222815127
-36.40412290905244 11.334078545507973
-36.396280389993024 11.334798468250547
-36.388486392118608 11.33592803653857
-36.380760121286535 11.337453147805874
-36.373119632209296 11.339361821756997
-36.365580524594051 11.341637964613748
-36.358156223080627 11.344264284655708
-36.350859749480797 11.347227075100093
-36.343700704591221 11.350507862059539
-36.336686701724737 11.354088096277156
-36.329825588513934 11.357953103543347
-36.323120890836528 11.362083360879495
-36.316574193678953 11.366459614796556
-36.310187826460997 11.371066568950297
-36.303959446761198 11.37588485528744
-36.29788411280078 11.380894627353022
-36.291959182304986 11.386081306807919
-36.286176152903657 11.391425649329788
-36.280523923677791 11.396908053499271
-36.274994913591719 11.402514620607276
-36.269574907340491 11.408226559395679
-36.26425360338245 11.414030497464513
-36.259013130192308 11.41990746695973
-36.253834637655359 11.42583907868099
-36.248704652250204 11.431812659392669
-36.243602342717629 11.437809877206957
-36.238513330968203 11.443818378432169
-36.233415659033028 11.449819545669639
-36.228286113532945 11.455793522185836
-36.223110354958145 11.461727556641875
-36.217865990100428 11.467601122034445
-36.212530738153681 11.473392359406253
-36.207082639370576 11.479077703053665
-36.201500318078331 11.484631491936561
-36.195762378242406 11.490024574923076
-36.189849695274951 11.495225765025609
-36.183744064771957 11.500199386145772
-36.177429941837616 11.504905923136581
-36.170896006348755 11.509302734653744
-36.164134441597042 11.513341399915273
-36.157143250374993 11.516968918231537
-36.149927615229508 11.520127579413408
-36.142509209261007 11.522774935812263
-36.134927174321128 11.52490860303466
-36.127219285319363 11.526529302529198
-36.119421752195521 11.527640644123457
-36.111569045728658 11.528248923277044
-36.103693730451745 11.528362395564875
-36.095826438307 11.527991263825706
-36.087995615965717 11.527149302134291
-36.080228146875179 11.525847042187415
-36.072548993638314 11.52409805674654
-36.06498275248213 11.521911883568526
-36.05755146166684 11.519303747515551
-36.050275542105659 11.516289345329332
-36.043173631421546 11.512885272368704
-36.036263948021784 11.509106331285086
-36.029560616442602 11.504972477777731
-36.023080149619624 11.500497407044577
-36.016836414870141 11.495697636693341
-36.010841788223409 11.490590213841203
-36.005107080278343 11.485192648314491
-35.999641242692277 11.47952304143279
-35.99445162077491 11.473599627310678
-35.989543682698987 11.46744087022066
-35.984920916628113 11.461065350227216
-35.980584508437879 11.454491781981144
-35.976533722570458 11.447738536659871
-35.972765644858185 11.440823648866999
-35.969275197038925 11.433764633516647
-35.966058290086956 11.426576918909054
-35.963105325604523 11.419276884426422
-35.960404746989362 11.411879849420401
-35.957942786699448 11.404400093613415
-35.95570350164293 11.39685076547001
-35.953668849770224 11.389243812206377
-35.951818476795047 11.381590021127575
-35.950130466904326 11.373898860159329
-35.948581218310729 11.366178613395542
-35.947145655144681 11.358436473965503
-35.945801487557873 11.350677986565435
-35.944521191204096 11.34290873399868
-35.943276728822212 11.33513367822783
-35.942039500392255 11.32735747087297
-35.94078061582114 11.319584727724871
-35.939471195281591 11.311820310174799
-35.938082690884642 11.304069600458019
-35.936587220092306 11.296338756903765
-35.934957896818027 11.288634936561094
-35.933168767978259 11.280966563045345
-35.931195832707608 11.273343305354746
-35.929016884036407 11.265776239131105
-35.926611632039112 11.258277906035101
-35.923961720539545 11.250862364897978
-35.921050635755606 11.243545262239163
-35.917858662977601 11.236346102420486
-35.914372459680337 11.229284575418411
-35.910579994908517 11.222382537742718
-35.90647035312459 11.215664368658933
-35.902033812361125 11.209157299698116
-35.897261918666374 11.202891873998668
-35.892148059771998 11.19690218176819
-35.886692459677782 11.191221908762596
-35.880894453514422 11.185891526619301
-35.874758167037974 11.180954294236804
-35.868298201214287 11.176448835694956
-35.861535956932372 11.172411256011307
-35.854500490453979 11.16887125756357
-35.847230382244092 11.165842391109594
-35.839766672725801 11.163328318279289
-35.832153002320133 11.161313728537602
-35.824430697891636 11.159767197645682
-35.816658057286105 11.158498120796127
-35.808843380998326 11.157520902739243
-35.801005680603581 11.156749758865651
-35.79315634956145 11.156107200849755
-35.785299715480548 11.155565580407101
-35.777439070116692 11.15508964905481
-35.769583482505077 11.154539576140818
-35.761748478706018 11.153747852524598

        </DataArray>
        <DataArray type="Float32" Name="u" NumberOfComponents="1">
          0 0.007874015748031496 0.015748031496062992 0.023622047244094488 0.031496062992125984 0.03937007874015748 0.047244094488188976 0.055118110236220472 0.062992125984251968 0.070866141732283464 0.07874015748031496 0.086614173228346455 0.094488188976377951 0.10236220472440945 0.11023622047244094 0.11811023622047244 0.12598425196850394 0.13385826771653545 0.14173228346456693 0.14960629921259844 0.15748031496062992 0.16535433070866143 0.17322834645669291 0.18110236220472442 0.1889763779527559 0.19685039370078741 0.20472440944881889 0.2125984251968504 0.22047244094488189 0.2283464566929134 0.23622047244094488 0.24409448818897639 0.25196850393700787 0.25984251968503935 0.26771653543307089 0.27559055118110237 0.28346456692913385 0.29133858267716534 0.29921259842519687 0.30708661417322836 0.31496062992125984 0.32283464566929132 0.33070866141732286 0.33858267716535434 0.34645669291338582 0.3543307086614173 0.36220472440944884 0.37007874015748032 0.37795275590551181 0.38582677165354329 0.39370078740157483 0.40157480314960631 0.40944881889763779 0.41732283464566927 0.42519685039370081 0.43307086614173229 0.44094488188976377 0.44881889763779526 0.45669291338582679 0.46456692913385828 0.47244094488188976 0.48031496062992124 0.48818897637795278 0.49606299212598426 0.50393700787401574 0.51181102362204722 0.51968503937007871 0.52755905511811019 0.53543307086614178 0.54330708661417326 0.55118110236220474 0.55905511811023623 0.56692913385826771 0.57480314960629919 0.58267716535433067 0.59055118110236215 0.59842519685039375 0.60629921259842523 0.61417322834645671 0.62204724409448819 0.62992125984251968 0.63779527559055116 0.64566929133858264 0.65354330708661412 0.66141732283464572 0.6692913385826772 0.67716535433070868 0.68503937007874016 0.69291338582677164 0.70078740157480313 0.70866141732283461 0.71653543307086609 0.72440944881889768 0.73228346456692917 0.74015748031496065 0.74803149606299213 0.75590551181102361 0.76377952755905509 0.77165354330708658 0.77952755905511806 0.78740157480314965 0.79527559055118113 0.80314960629921262 0.8110236220472441 0.81889763779527558 0.82677165354330706 0.83464566929133854 0.84251968503937003 0.85039370078740162 0.8582677165354331 0.86614173228346458 0.87401574803149606 0.88188976377952755 0.88976377952755903 0.89763779527559051 0.90551181102362199 0.91338582677165359 0.92125984251968507 0.92913385826771655 0.93700787401574803 0.94488188976377951 0.952755905511811 0.96062992125984248 0.96850393700787396 0.97637795275590555 0.98425196850393704 0.99212598425196852 1
        </DataArray>
      </PointData>
      <CellData Scalars="P">
        <DataArray type="Float32" Name="P" NumberOfComponents="1">
          0.022772243149232603 0.13508860798339994 0.29211073198664711 0.4772054462386327 0.67760025097721366 0.88177880363521932 1.0893671869433759 1.2983072327819052 1.5033179002742116 1.7071082427739741 1.9058105070041276 2.1021299540577334 2.290260959749808 2.4688897466241797 2.642331111628208 2.8032918170531156 2.9503631301279434 3.0860760021807208 3.2017806373757289 3.2955450589111375 3.3693493272263511 3.4177088845564918 3.4409709199594181 3.4437170692876196 3.4264235725112129 3.3947736727845257 3.3550412054450112 3.3148785700369423 3.2771997295777031 3.2505826921563794 3.240944169629191 3.2470295821238673 3.2749026406943331 3.3164667166884887 3.3724333993578299 3.43622074946648 3.4942784642545579 3.5423871202677164 3.573742356759896 3.5825022849191344 3.5642530691964676 3.516366976764854 3.4380068365759215 3.3308294179101896 3.1978732821081182 3.0422800117205191 2.8668187549724 2.6680679929835103 2.4299737764662788 2.1423193760334112 1.8263462701939068 1.499176874388219 1.1795309057201815 0.88430946472390914 0.62694461868542317 0.41657616017393434 0.25957569941206143 0.16391606525402574 0.1300994308808357 0.15599037218099462 0.22363550745356722 0.31641982884237635 0.42013857444351427 0.52529057161649118 0.61803863496680289 0.70000939974358534 0.76133286622740692 0.79141371120032278 0.7793582015361824 0.71463140714875162 0.58816477495661235 0.39222658773279506 0.12086689624085031 -0.22930483444549651 -0.65893282616832194 -1.1656107180344504 -1.7440654715805097 -2.3944043714584389 -3.1050463632288743 -3.8680599211398281 -4.6705178911429508 -5.4952578608269889 -6.3211635475881094 -7.1221091493486037 -7.8718014214565795 -8.541304788381801 -9.1019518073108454 -9.5519579863398949 -9.8448099286146036 -9.9636591423338068 -9.8945549196744533 -9.6298436260619003 -9.1693665669434843 -8.5210477870292642 -7.7006653462869261 -6.730643008605611 -5.6354477443389612 -4.4460759740789717 -3.1885262825683021 -1.8817600504424821 -0.5333580529336448 0.86416536452577419 2.360852346869672 3.9628667307428143 5.7163507489767653 7.6797246291647321 9.9159631477020955 12.48302191245349 15.415450572781523 18.661357287921348 22.194750089769382 25.848537756970074 29.270763655285361 32.042755601707952 33.648430115621395 33.548849327485243 31.344916921767247 26.868313557455625 20.274395323246267 14.948897530399881 8.0657536560677254 2.5238225855173746 -1.1889937431032513 -3.5414371951503196 -4.8084438023734322 -2.9611900311245298 -0.02290800501428442
        </DataArray>
      </CellData>
      <Points>
        <DataArray type="Float32" NumberOfComponents="3" format="ascii">
          -36.465772378689188 11.344069609331504 0
          -36.458420269406631 11.341245238860903 0
          -36.450909920401955 11.338873645876115 0
          -36.443271096747068 11.336955999107275 0
          -36.435532630842026 11.335491651769496 0
          -36.427722363410872 11.334478228904715 0
          -36.419867276117081 11.333909028776437 0
          -36.41199274008887 11.333778222815127 0
          -36.40412290905244 11.334078545507973 0
          -36.396280389993024 11.334798468250547 0
          -36.388486392118608 11.33592803653857 0
          -36.380760121286535 11.337453147805874 0
          -36.373119632209296 11.339361821756997 0
          -36.365580524594051 11.341637964613748 0
          -36.358156223080627 11.344264284655708 0
          -36.350859749480797 11.347227075100093 0
          -36.343700704591221 11.350507862059539 0
          -36.336686701724737 11.354088096277156 0
          -36.329825588513934 11.357953103543347 0
          -36.323120890836528 11.362083360879495 0
          -36.316574193678953 11.366459614796556 0
          -36.310187826460997 11.371066568950297 0
          -36.303959446761198 11.37588485528744 0
          -36.29788411280078 11.380894627353022 0
          -36.291959182304986 11.386081306807919 0
          -36.286176152903657 11.391425649329788 0
          -36.280523923677791 11.396908053499271 0
          -36.274994913591719 11.402514620607276 0
          -36.269574907340491 11.408226559395679 0
          -36.26425360338245 11.414030497464513 0
          -36.259013130192308 11.41990746695973 0
          -36.253834637655359 11.42583907868099 0
          -36.248704652250204 11.431812659392669 0
          -36.243602342717629 11.437809877206957 0
          -36.238513330968203 11.443818378432169 0
          -36.233415659033028 11.449819545669639 0
          -36.228286113532945 11.455793522185836 0
          -36.223110354958145 11.461727556641875 0
          -36.217865990100428 11.467601122034445 0
          -36.212530738153681 11.473392359406253 0
          -36.207082639370576 11.479077703053665 0
          -36.201500318078331 11.484631491936561 0
          -36.195762378242406 11.490024574923076 0
          -36.189849695274951 11.495225765025609 0
          -36.183744064771957 11.500199386145772 0
          -36.177429941837616 11.504905923136581 0
          -36.170896006348755 11.509302734653744 0
          -36.164134441597042 11.513341399915273 0
          -36.157143250374993 11.516968918231537 0
          -36.149927615229508 11.520127579413408 0
          -36.142509209261007 11.522774935812263 0
          -36.134927174321128 11.52490860303466 0
          -36.127219285319363 11.526529302529198 0
          -36.119421752195521 11.527640644123457 0
          -36.111569045728658 11.528248923277044 0
          -36.103693730451745 11.528362395564875 0
          -36.095826438307 11.527991263825706 0
          -36.087995615965717 11.527149302134291 0
          -36.080228146875179 11.525847042187415 0
          -36.072548993638314 11.52409805674654 0
          -36.06498275248213 11.521911883568526 0
          -36.05755146166684 11.519303747515551 0
          -36.050275542105659 11.516289345329332 0
          -36.043173631421546 11.512885272368704 0
          -36.036263948021784 11.509106331285086 0
          -36.029560616442602 11.504972477777731 0
          -36.023080149619624 11.500497407044577 0
          -36.016836414870141 11.495697636693341 0
          -36.010841788223409 11.490590213841203 0
          -36.005107080278343 11.485192648314491 0
          -35.999641242692277 11.47952304143279 0
          -35.99445162077491 11.473599627310678 0
          -35.989543682698987 11.46744087022066 0
          -35.984920916628113 11.461065350227216 0
          -35.980584508437879 11.454491781981144 0
          -35.976533722570458 11.447738536659871 0
          -35.972765644858185 11.440823648866999 0
          -35.969275197038925 11.433764633516647 0
          -35.966058290086956 11.426576918909054 0
          -35.963105325604523 11.419276884426422 0
          -35.960404746989362 11.411879849420401 0
          -35.957942786699448 11.404400093613415 0
          -35.95570350164293 11.39685076547001 0
          -35.953668849770224 11.389243812206377 0
          -35.951818476795047 11.381590021127575 0
          -35.950130466904326 11.373898860159329 0
          -35.948581218310729 11.366178613395542 0
          -35.947145655144681 11.358436473965503 0
          -35.945801487557873 11.350677986565435 0
          -35.944521191204096 11.34290873399868 0
          -35.943276728822212 11.33513367822783 0
          -35.942039500392255 11.32735747087297 0
          -35.94078061582114 11.319584727724871 0
          -35.939471195281591 11.311820310174799 0
          -35.938082690884642 11.304069600458019 0
          -35.936587220092306 11.296338756903765 0
          -35.934957896818027 11.288634936561094 0
          -35.933168767978259 11.280966563045345 0
          -35.931195832707608 11.273343305354746 0
          -35.929016884036407 11.265776239131105 0
          -35.926611632039112 11.258277906035101 0
          -35.923961720539545 11.250862364897978 0
          -35.921050635755606 11.243545262239163 0
          -35.917858662977601 11.236346102420486 0
          -35.914372459680337 11.229284575418411 0
          -35.910579994908517 11.222382537742718 0
          -35.90647035312459 11.215664368658933 0
          -35.902033812361125 11.209157299698116 0
          -35.897261918666374 11.202891873998668 0
          -35.892148059771998 11.19690218176819 0
          -35.886692459677782 11.191221908762596 0
          -35.880894453514422 11.185891526619301 0
          -35.874758167037974 11.180954294236804 0
          -35.868298201214287 11.176448835694956 0
          -35.861535956932372 11.172411256011307 0
          -35.854500490453979 11.16887125756357 0
          -35.847230382244092 11.165842391109594 0
          -35.839766672725801 11.163328318279289 0
          -35.832153002320133 11.161313728537602 0
          -35.824430697891636 11.159767197645682 0
          -35.816658057286105 11.158498120796127 0
          -35.808843380998326 11.157520902739243 0
          -35.801005680603581 11.156749758865651 0
          -35.79315634956145 11.156107200849755 0
          -35.785299715480548 11.155565580407101 0
          -35.777439070116692 11.15508964905481 0
          -35.769583482505077 11.154539576140818 0
          -35.761748478706018 11.153747852524598 0
        </DataArray>
      </Points>
      <Cells>
        <DataArray type="Int32" Name="connectivity" format="ascii">
          0 1 1 2 2 3 3 4 4 5 5 6 6 7 7 8 8 9 9 10 10 11 11 12 12 13 13 14 14 15 15 16 16 17 17 18 18 19 19 20 20 21 21 22 22 23 23 24 24 25 25 26 26 27 27 28 28 29 29 30 30 31 31 32 32 33 33 34 34 35 35 36 36 37 37 38 38 39 39 40 40 41 41 42 42 43 43 44 44 45 45 46 46 47 47 48 48 49 49 50 50 51 51 52 52 53 53 54 54 55 55 56 56 57 57 58 58 59 59 60 60 61 61 62 62 63 63 64 64 65 65 66 66 67 67 68 68 69 69 70 70 71 71 72 72 73 73 74 74 75 75 76 76 77 77 78 78 79 79 80 80 81 81 82 82 83 83 84 84 85 85 86 86 87 87 88 88 89 89 90 90 91 91 92 92 93 93 94 94 95 95 96 96 97 97 98 98 99 99 100 100 101 101 102 102 103 103 104 104 105 105 106 106 107 107 108 108 109 109 110 110 111 111 112 112 113 113 114 114 115 115 116 116 117 117 118 118 119 119 120 120 121 121 122 122 123 123 124 124 125 125 126 126 127 
        </DataArray>
        <DataArray type="Int32" Name="offsets" format="ascii">
          2 4 6 8 10 12 14 16 18 20 22 24 26 28 30 32 34 36 38 40 42 44 46 48 50 52 54 56 58 60 62 64 66 68 70 72 74 76 78 80 82 84 86 88 90 92 94 96 98 100 102 104 106 108 110 112 114 116 118 120 122 124 126 128 130 132 134 136 138 140 142 144 146 148 150 152 154 156 158 160 162 164 166 168 170 172 174 176 178 180 182 184 186 188 190 192 194 196 198 200 202 204 206 208 210 212 214 216 218 220 222 224 226 228 230 232 234 236 238 240 242 244 246 248 250 252 254 
        </DataArray>
        <DataArray type="Int32" Name="types" format="ascii">
          3 3 3 3 3 3 3 3 3 3 3 3 3 3 3 3 3 3 3 3 3 3 3 3 3 3 3 3 3 3 3 3 3 3 3 3 3 3 3 3 3 3 3 3 3 3 3 3 3 3 3 3 3 3 3 3 3 3 3 3 3 3 3 3 3 3 3 3 3 3 3 3 3 3 3 3 3 3 3 3 3 3 3 3 3 3 3 3 3 3 3 3 3 3 3 3 3 3 3 3 3 3 3 3 3 3 3 3 3 3 3 3 3 3 3 3 3 3 3 3 3 3 3 3 3 3 3         </DataArray>
      </Cells>
    </Piece>
  </UnstructuredGrid>
</VTKFile>
<!-- DATA


-->
