<?xml version="1.0"?>
<VTKFile type="UnstructuredGrid" version="0.1" byte_order="LittleEndian">
  <UnstructuredGrid>
    <Piece NumberOfPoints="128" NumberOfCells="127">
      <PointData Scalars="u">
        <DataArray type="Float32" Name="Y" NumberOfComponents="2">

0 0
0.018316414035161491 -0.032354730307089685
0.025458253609891023 -0.030788604287920449
0.038655756698262669 -0.020976024640143125
0.055612336989740128 -0.0019308664661559448
0.073891548421118489 0.026884070003284098
0.091017005934676265 0.065448553067128448
0.10461916649264767 0.11312296931127232
0.11260853033107446 0.16864682181834778
0.11334964714970809 0.23020317994265888
0.10580926914118471 0.2955443271724526
0.089655545249079011 0.36216385261067674
0.065292698046849784 0.42749281625953933
0.033825645062673437 0.48909398294247292
-0.0030405371947720104 0.54482913821243184
-0.043152608089142667 0.59297979589372507
-0.084093294415410566 0.63230991930322888
-0.12337648400440361 0.66206884144851275
-0.15863429013544672 0.68194158202497723
-0.18778131353064328 0.69196079107861996
-0.20914715351447022 0.6923987802270094
-0.22157367549654097 0.68365935333115724
-0.22447755125605526 0.66618773589058156
-0.21788048361581075 0.64041340160088045
-0.20240923329694971 0.60673560710383578
-0.17926558061491227 0.56555544717074491
-0.15016362279411752 0.51735156444003549
-0.11722957056197189 0.46278957965506418
-0.082858775739611909 0.40284828903687048
-0.049527206216372369 0.33893948443245348
-0.019560569783049243 0.27299410528422491
0.005126516153668736 0.20748688263059001
0.023297915610515627 0.14537621374997092
0.034636286689652442 0.089946625984243231
0.039916500588282854 0.044557466743659395
0.041073511680681539 0.01232121363930859
0.041136603390735695 -0.0042459437051616854
0.044021711182525895 -0.0035448942500349236
0.05419938019693505 0.014874019656767726
0.076282176497690451 0.050217322040177072
0.11459522687879063 0.10052198134313518
0.17280117876435744 0.16289536236919214
0.2536434481929366 0.23389066950981
0.35885050695031989 0.30996421411843239
0.4892142899216812 0.38795115987973811
0.64482477441526898 0.46550204029172365
0.82541720827134524 0.54144136601950466
1.0307726067348217 0.61603690161299929
1.2611065689268723 0.69119715436505391
1.5173831900260537 0.77063921115934664
1.8014944561728155 0.86008479934776882
2.1007482761731753 1.0008774747976505
2.40711948222798 1.205771651102618
2.7221833545628695 1.4418910234661078
3.0329564800980044 1.7082495741699122
3.327028111364748 2.0030941543359329
3.5927594060043471 2.3235493936985012
3.8195505755288068 2.6653373944487284
3.998163788905146 3.0226092419882495
4.1210787711222565 3.3879172364709418
4.182847274845737 3.7523452348783133
4.1804044402342813 4.1057995406349885
4.1132918405999845 4.4374453361776665
3.9837504499450618 4.7362557071820515
3.7966524261553549 4.9916245981218292
3.5592575689750419 5.1939845019719488
3.2808011943860191 5.3353667138828307
2.9719415106921852 5.4098477083313403
2.6441126030688094 5.413839092975377
2.3088406160384167 5.3461984360251895
1.9770837868786577 5.2081606389701856
1.6586514907987064 5.0031106117179993
1.3617449589989854 4.7362344569504939
1.0926455611117578 4.4140960147367601
0.85555869456594635 4.0441877927860741
0.65260529059022965 3.6345007737655171
0.48394078028813642 3.1931481336687573
0.34797402128166044 2.7280657775516186
0.24165608044030584 2.246799991360398
0.16081004195236423 1.7563811666051001
0.10047688564490764 1.2632735986126169
0.055257610687904843 0.77338528476611612
0.019637007345753753 0.29211845144263215
-0.011721016271854189 -0.17555911297931517
-0.043713296894715196 -0.62504043462122083
-0.080577099637673774 -1.0520190109437939
-0.12571317421825531 -1.4524533214955311
-0.1815553106904734 -1.8225631463309746
-0.24948929045413662 -2.158859791767926
-0.32982365299870359 -2.4582076049904682
-0.42181364053917081 -2.7179099457026492
-0.52373786665404276 -2.9358094378476776
-0.63302470561269419 -3.1103901757181247
-0.74642233787023959 -3.2408688516603332
-0.86020319815470869 -3.3272626133807468
-0.97039072895865908 -3.3704237716171894
-1.0729943179382089 -3.3720349885721208
-1.1642374646016227 -3.3345628337236053
-1.2407647800956252 -3.2611720304144347
-1.2998153503606515 -3.1556067441539342
-1.3393530533408924 -3.0220483641587341
-1.3581482125421795 -2.8649610438942732
-1.3558090046141305 -2.6889366441459459
-1.332764836274364 -2.498549732542529
-1.2902070709754914 -2.2982311939464908
-1.2299947664405173 -2.0921661805201617
-1.1545343880896917 -1.884219015411515
-1.0666428468078817 -1.6778846761873054
-0.96940283218498602 -1.4762639667214645
-0.86601849378952711 -1.2820576720140908
-0.75967828405734639 -1.0975739953337211
-0.65343040749648607 -0.92474340342214112
-0.55007495621096991 -0.76513556322999032
-0.45207552633775328 -0.61997418419482186
-0.36149193097500143 -0.49014708187609152
-0.27993454900835274 -0.37621043341395238
-0.20853986538911279 -0.27838778862651092
-0.14796586539171125 -0.19656574372941776
-0.098405161180970147 -0.13028912993289068
-0.059613089136741286 -0.078759023170707237
-0.030947567193922453 -0.040836808854675472
-0.01141728005885231 -0.015056962980623758
0.0002652175811289523 0.00034978532508631797
0.0056286434648388887 0.0074225494054961537
0.0063891287204247719 0.0084267537062409827
0.0043996240856454842 0.0058035962157402463
0.0016043828465481271 0.0021165311114591024
0 0

        </DataArray>
        <DataArray type="Float32" Name="W" NumberOfComponents="2">

-1.3384164425733998 0.55060174695768305
-1.333852519810053 0.54418522912463219
-1.3288416001490686 0.53811136081363031
-1.3233934147688737 0.53242642013024422
-1.3175264569358203 0.52717474017088828
-1.3112674559682118 0.52239705417278592
-1.3046504798680509 0.51812891395876293
-1.2977156981188516 0.51439927729962676
-1.2905078613514598 0.51122934855451119
-1.2830745760570359 0.50863173819548335
-1.2754644679859901 0.50660998228802634
-1.2677253357155411 0.50515843507562397
-1.2599023953958115 0.5042625192991208
-1.2520367091751345 0.50389929262865063
-1.2441638744674302 0.50403826717034017
-1.2363130310080666 0.50464240440772801
-1.2285062199485419 0.50566920130608184
-1.2207581065574138 0.50707178488560578
-1.2130760576525457 0.50879994171333409
-1.2054605483460423 0.51080102410391448
-1.1979058609277575 0.51302069450102461
-1.1904010318009897 0.51540349146227504
-1.1829309996053741 0.51789322284867734
-1.1754779077294299 0.52043321238954876
-1.1680225157296693 0.52296644321618713
-1.1605456751289374 0.52543565499839728
-1.1530298243538506 0.52778345900247903
-1.1454604544407632 0.52995253695070432
-1.1378274916014703 0.53188598442905799
-1.1301265356652761 0.53352784745044968
-1.1223598865145585 0.53482388173769368
-1.1145372862836367 0.5357225390862389
-1.1066763059933893 0.53617615541719565
-1.0988023139574035 0.53614228348199788
-1.0909479814255465 0.53558508327349408
-1.0831523088101433 0.53447665936598365
-1.0754591918657364 0.53279822105513197
-1.0679155877488382 0.53054094192235945
-1.0605693806766892 0.52770641222336889
-1.0534670797995809 0.52430660976304266
-1.0466515021280731 0.52036335939302081
-1.0401595968052744 0.51590730227162607
-1.0340205522796877 0.51097644643721696
-1.0282542967756561 0.50561441290197762
-1.0228704595217126 0.49986852063434711
-1.0178678120565625 0.49378786628669968
-1.0132341627323589 0.48742155023121442
-1.0089466396160467 0.48081718212923713
-1.0049722718638907 0.47401977163345482
-1.0012687695426619 0.46707107851739721
-0.99778540689532835 0.46000946682516985
-0.99446393279474199 0.45287028353594777
-0.9910122121361653 0.44579315498483585
-0.98741124966020133 0.43879078421526402
-0.9836415111005824 0.43187781021768012
-0.97968372815741167 0.42507074683456553
-0.97551966796957412 0.41838787410347539
-0.97113285473544741 0.41184906001988109
-0.96650922691989682 0.40547549533784322
-0.96163771002757903 0.39928933095906027
-0.95651068289409136 0.39331321618577253
-0.95112431551494725 0.38756974591658733
-0.94547875910412338 0.38208083481946453
-0.9395781745487517 0.37686704554138789
-0.93343059349143398 0.37194690499672534
-0.92704761626593946 0.36733624674165827
-0.92044396178376253 0.36304761773674732
-0.91363689492320144 0.35908978423907756
-0.90664556568559518 0.35546736450462468
-0.89949030023740761 0.35218060628196929
-0.89219188623971579 0.34922531597078976
-0.88477089338824211 0.34659293519029799
-0.87724706518787399 0.34427075066159263
-0.86963881044079583 0.34224221577400327
-0.86196281377689787 0.34048735757700754
-0.85423377490597263 0.33898324135107788
-0.84646427711764671 0.3377044660816545
-0.8386647776514996 0.33662366750380951
-0.83084370636174509 0.33571201014893642
-0.82300765476964322 0.33493965522710817
-0.81516163505343608 0.33427619651624318
-0.80730938752963832 0.33369106114654334
-0.799453715412762 0.33315387588918038
-0.7915968267788237 0.33263480208365415
-0.78374066542192378 0.33210484362828152
-0.77588721447516495 0.33153613260017334
-0.76803875913617625 0.33090219624743922
-0.76019809752662915 0.33017820755508975
-0.75236869159803543 0.32934121961364493
-0.74455475305855678 0.32837038191679152
-0.73676126250807583 0.32724713477410999
-0.72899392326580859 0.32595537650817508
-0.72125905464370277 0.32448159721964709
-0.71356343250169563 0.32281497278257126
-0.70591408762780306 0.32094741341884686
-0.69831807461919815 0.31887356264359817
-0.69078222532361733 0.31659074442859353
-0.68331290140800272 0.31409885888128364
-0.67591576020162325 0.31140022931856703
-0.66859554664857668 0.30849940605190346
-0.66135592211901795 0.30540293424413895
-0.65419933815945186 0.30211909465611164
-0.64712696024505545 0.29865762686024316
-0.64013864348150862 0.29502944453547525
-0.63323295922567713 0.29124635183441822
-0.62640726894998922 0.28732076865963202
-0.6196578395058796 0.28326547117676065
-0.61297999232811584 0.27909335222094184
-0.60636827808790827 0.27481720460476833
-0.5998166678250616 0.27044952886720375
-0.59331875161106196 0.2660023658257385
-0.58686793623908373 0.26148715347042112
-0.58045763421855923 0.25691460727898768
-0.57408143738654904 0.25229462290256599
-0.56773326965599424 0.24763620030124969
-0.5614075147289177 0.24294738870511584
-0.55509911594404904 0.23823525213640301
-0.54880364674220861 0.23350585555378497
-0.54251735146372304 0.22876427188668852
-0.53623715729156574 0.22401461025778993
-0.52996065908215606 0.21926006551703991
-0.52368607955495439 0.21450298883527638
-0.517412207828431 0.20974497856518026
-0.51113831959503198 0.2049869899337749
-0.50486408233665481 0.20022946146473375
-0.49858944892032037 0.19547245543191571
-0.49231454271128722 0.19071580921113074
-0.48603953702602504 0.18595929421230789

        </DataArray>
        <DataArray type="Float32" Name="u" NumberOfComponents="1">
          0 0.007874015748031496 0.015748031496062992 0.023622047244094488 0.031496062992125984 0.03937007874015748 0.047244094488188976 0.055118110236220472 0.062992125984251968 0.070866141732283464 0.07874015748031496 0.086614173228346455 0.094488188976377951 0.10236220472440945 0.11023622047244094 0.11811023622047244 0.12598425196850394 0.13385826771653545 0.14173228346456693 0.14960629921259844 0.15748031496062992 0.16535433070866143 0.17322834645669291 0.18110236220472442 0.1889763779527559 0.19685039370078741 0.20472440944881889 0.2125984251968504 0.22047244094488189 0.2283464566929134 0.23622047244094488 0.24409448818897639 0.25196850393700787 0.25984251968503935 0.26771653543307089 0.27559055118110237 0.28346456692913385 0.29133858267716534 0.29921259842519687 0.30708661417322836 0.31496062992125984 0.32283464566929132 0.33070866141732286 0.33858267716535434 0.34645669291338582 0.3543307086614173 0.36220472440944884 0.37007874015748032 0.37795275590551181 0.38582677165354329 0.39370078740157483 0.40157480314960631 0.40944881889763779 0.41732283464566927 0.42519685039370081 0.43307086614173229 0.44094488188976377 0.44881889763779526 0.45669291338582679 0.46456692913385828 0.47244094488188976 0.48031496062992124 0.48818897637795278 0.49606299212598426 0.50393700787401574 0.51181102362204722 0.51968503937007871 0.52755905511811019 0.53543307086614178 0.54330708661417326 0.55118110236220474 0.55905511811023623 0.56692913385826771 0.57480314960629919 0.58267716535433067 0.59055118110236215 0.59842519685039375 0.60629921259842523 0.61417322834645671 0.62204724409448819 0.62992125984251968 0.63779527559055116 0.64566929133858264 0.65354330708661412 0.66141732283464572 0.6692913385826772 0.67716535433070868 0.68503937007874016 0.69291338582677164 0.70078740157480313 0.70866141732283461 0.71653543307086609 0.72440944881889768 0.73228346456692917 0.74015748031496065 0.74803149606299213 0.75590551181102361 0.76377952755905509 0.77165354330708658 0.77952755905511806 0.78740157480314965 0.79527559055118113 0.80314960629921262 0.8110236220472441 0.81889763779527558 0.82677165354330706 0.83464566929133854 0.84251968503937003 0.85039370078740162 0.8582677165354331 0.86614173228346458 0.87401574803149606 0.88188976377952755 0.88976377952755903 0.89763779527559051 0.90551181102362199 0.91338582677165359 0.92125984251968507 0.92913385826771655 0.93700787401574803 0.94488188976377951 0.952755905511811 0.96062992125984248 0.96850393700787396 0.97637795275590555 0.98425196850393704 0.99212598425196852 1
        </DataArray>
      </PointData>
      <CellData Scalars="P">
        <DataArray type="Float32" Name="P" NumberOfComponents="1">
          0.0035602333217854085 0.11393916331292704 0.32808662026885882 0.64395475157032445 1.056373325305652 1.5566151502158214 2.1322087340805762 2.7670759128718263 3.4420285355717399 4.1356113001708534 4.8252335135659514 5.4884964947870021 6.1045998797896006 6.655701574943385 7.1281125749880596 7.5132270832934793 7.8081163613702023 8.0157465806370336 8.1448118107226257 8.2091993174033675 8.2271234075084756 8.2199759666469507 8.2109482274608379 8.2234820948152958 8.2796138998745583 8.3982816080788893 8.5936796818612216 8.87376324757021 9.2390216518264339 9.6816552343549684 10.185290904231298 10.72535446496364 11.270175098734946 11.782828717446455 12.223636889627482 12.553138577257361 12.735260723181936 12.740351402443217 12.547724390935615 12.147407908927239 11.540892821159334 10.740823798523675 9.7697474556056765 8.6581958181887408 7.4425150965506859 6.1629301649183965 4.8623573417383916 3.5864460631974788 2.3852550793392946 1.3168631947471314 0.45308479073834057 1.286383358899877 2.3275573409843253 3.5726181688955259 5.0037997640657093 6.5894974615928446 8.2853392599448892 10.036218824032273 11.779122845349988 13.446570434302528 14.970454461743312 16.286042554103879 17.335869129173123 18.073239905576902 18.465085043918265 18.493940515545521 18.158907845916524 17.475532689065819 16.474640969460388 15.200263800226802 13.706856251007908 12.056061121755945 10.313283287790735 8.5443246036771221 6.812290066808659 5.174921970932318 3.6824597849227594 2.3760679318813702 1.2868275723831895 0.43525509704680648 -0.16871020632165612 -0.52531553566459843 -0.64426728555420754 -0.5437282146845791 -0.2490931467514344 0.20840897769349301 0.7932425402596639 1.4671782742927919 2.1909450221833149 2.9258682018441959 3.6354372549408565 4.2867400332561916 4.8517010575639929 5.3080643628247746 5.6400710412601125 5.8387965510332167 5.9021323996963488 5.8344191806662602 5.6457608696295312 5.3510713604598923 4.9689212549992945 4.5202642860867019 4.0271275644737408 3.5113480086250446 2.9934294595595397 2.4915822348808856 2.0209906601385454 1.5933359253336521 1.2165828565808843 0.89502109674932262 0.62953478853252931 0.4180610102707697 0.25618665432517884 0.13782676502146773 0.055925033889362215 0.0031194451808906338 -0.02767705699166342 -0.042819963021536532 -0.047625381863200374 -0.04621937010182698 -0.041536008098082285 -0.035440500142837061 -0.028941421536084824 -0.022448661308902787 -0.01603143807644989 -0.0096340437885727888 -0.0032148705660143013
        </DataArray>
      </CellData>
      <Points>
        <DataArray type="Float32" NumberOfComponents="3" format="ascii">
          -1.3384164425733998 0.55060174695768305 0
          -1.333852519810053 0.54418522912463219 0
          -1.3288416001490686 0.53811136081363031 0
          -1.3233934147688737 0.53242642013024422 0
          -1.3175264569358203 0.52717474017088828 0
          -1.3112674559682118 0.52239705417278592 0
          -1.3046504798680509 0.51812891395876293 0
          -1.2977156981188516 0.51439927729962676 0
          -1.2905078613514598 0.51122934855451119 0
          -1.2830745760570359 0.50863173819548335 0
          -1.2754644679859901 0.50660998228802634 0
          -1.2677253357155411 0.50515843507562397 0
          -1.2599023953958115 0.5042625192991208 0
          -1.2520367091751345 0.50389929262865063 0
          -1.2441638744674302 0.50403826717034017 0
          -1.2363130310080666 0.50464240440772801 0
          -1.2285062199485419 0.50566920130608184 0
          -1.2207581065574138 0.50707178488560578 0
          -1.2130760576525457 0.50879994171333409 0
          -1.2054605483460423 0.51080102410391448 0
          -1.1979058609277575 0.51302069450102461 0
          -1.1904010318009897 0.51540349146227504 0
          -1.1829309996053741 0.51789322284867734 0
          -1.1754779077294299 0.52043321238954876 0
          -1.1680225157296693 0.52296644321618713 0
          -1.1605456751289374 0.52543565499839728 0
          -1.1530298243538506 0.52778345900247903 0
          -1.1454604544407632 0.52995253695070432 0
          -1.1378274916014703 0.53188598442905799 0
          -1.1301265356652761 0.53352784745044968 0
          -1.1223598865145585 0.53482388173769368 0
          -1.1145372862836367 0.5357225390862389 0
          -1.1066763059933893 0.53617615541719565 0
          -1.0988023139574035 0.53614228348199788 0
          -1.0909479814255465 0.53558508327349408 0
          -1.0831523088101433 0.53447665936598365 0
          -1.0754591918657364 0.53279822105513197 0
          -1.0679155877488382 0.53054094192235945 0
          -1.0605693806766892 0.52770641222336889 0
          -1.0534670797995809 0.52430660976304266 0
          -1.0466515021280731 0.52036335939302081 0
          -1.0401595968052744 0.51590730227162607 0
          -1.0340205522796877 0.51097644643721696 0
          -1.0282542967756561 0.50561441290197762 0
          -1.0228704595217126 0.49986852063434711 0
          -1.0178678120565625 0.49378786628669968 0
          -1.0132341627323589 0.48742155023121442 0
          -1.0089466396160467 0.48081718212923713 0
          -1.0049722718638907 0.47401977163345482 0
          -1.0012687695426619 0.46707107851739721 0
          -0.99778540689532835 0.46000946682516985 0
          -0.99446393279474199 0.45287028353594777 0
          -0.9910122121361653 0.44579315498483585 0
          -0.98741124966020133 0.43879078421526402 0
          -0.9836415111005824 0.43187781021768012 0
          -0.97968372815741167 0.42507074683456553 0
          -0.97551966796957412 0.41838787410347539 0
          -0.97113285473544741 0.41184906001988109 0
          -0.96650922691989682 0.40547549533784322 0
          -0.96163771002757903 0.39928933095906027 0
          -0.95651068289409136 0.39331321618577253 0
          -0.95112431551494725 0.38756974591658733 0
          -0.94547875910412338 0.38208083481946453 0
          -0.9395781745487517 0.37686704554138789 0
          -0.93343059349143398 0.37194690499672534 0
          -0.92704761626593946 0.36733624674165827 0
          -0.92044396178376253 0.36304761773674732 0
          -0.91363689492320144 0.35908978423907756 0
          -0.90664556568559518 0.35546736450462468 0
          -0.89949030023740761 0.35218060628196929 0
          -0.89219188623971579 0.34922531597078976 0
          -0.88477089338824211 0.34659293519029799 0
          -0.87724706518787399 0.34427075066159263 0
          -0.86963881044079583 0.34224221577400327 0
          -0.86196281377689787 0.34048735757700754 0
          -0.85423377490597263 0.33898324135107788 0
          -0.84646427711764671 0.3377044660816545 0
          -0.8386647776514996 0.33662366750380951 0
          -0.83084370636174509 0.33571201014893642 0
          -0.82300765476964322 0.33493965522710817 0
          -0.81516163505343608 0.33427619651624318 0
          -0.80730938752963832 0.33369106114654334 0
          -0.799453715412762 0.33315387588918038 0
          -0.7915968267788237 0.33263480208365415 0
          -0.78374066542192378 0.33210484362828152 0
          -0.77588721447516495 0.33153613260017334 0
          -0.76803875913617625 0.33090219624743922 0
          -0.76019809752662915 0.33017820755508975 0
          -0.75236869159803543 0.32934121961364493 0
          -0.74455475305855678 0.32837038191679152 0
          -0.73676126250807583 0.32724713477410999 0
          -0.72899392326580859 0.32595537650817508 0
          -0.72125905464370277 0.32448159721964709 0
          -0.71356343250169563 0.32281497278257126 0
          -0.70591408762780306 0.32094741341884686 0
          -0.69831807461919815 0.31887356264359817 0
          -0.69078222532361733 0.31659074442859353 0
          -0.68331290140800272 0.31409885888128364 0
          -0.67591576020162325 0.31140022931856703 0
          -0.66859554664857668 0.30849940605190346 0
          -0.66135592211901795 0.30540293424413895 0
          -0.65419933815945186 0.30211909465611164 0
          -0.64712696024505545 0.29865762686024316 0
          -0.64013864348150862 0.29502944453547525 0
          -0.63323295922567713 0.29124635183441822 0
          -0.62640726894998922 0.28732076865963202 0
          -0.6196578395058796 0.28326547117676065 0
          -0.61297999232811584 0.27909335222094184 0
          -0.60636827808790827 0.27481720460476833 0
          -0.5998166678250616 0.27044952886720375 0
          -0.59331875161106196 0.2660023658257385 0
          -0.58686793623908373 0.26148715347042112 0
          -0.58045763421855923 0.25691460727898768 0
          -0.57408143738654904 0.25229462290256599 0
          -0.56773326965599424 0.24763620030124969 0
          -0.5614075147289177 0.24294738870511584 0
          -0.55509911594404904 0.23823525213640301 0
          -0.54880364674220861 0.23350585555378497 0
          -0.54251735146372304 0.22876427188668852 0
          -0.53623715729156574 0.22401461025778993 0
          -0.52996065908215606 0.21926006551703991 0
          -0.52368607955495439 0.21450298883527638 0
          -0.517412207828431 0.20974497856518026 0
          -0.51113831959503198 0.2049869899337749 0
          -0.50486408233665481 0.20022946146473375 0
          -0.49858944892032037 0.19547245543191571 0
          -0.49231454271128722 0.19071580921113074 0
          -0.48603953702602504 0.18595929421230789 0
        </DataArray>
      </Points>
      <Cells>
        <DataArray type="Int32" Name="connectivity" format="ascii">
          0 1 1 2 2 3 3 4 4 5 5 6 6 7 7 8 8 9 9 10 10 11 11 12 12 13 13 14 14 15 15 16 16 17 17 18 18 19 19 20 20 21 21 22 22 23 23 24 24 25 25 26 26 27 27 28 28 29 29 30 30 31 31 32 32 33 33 34 34 35 35 36 36 37 37 38 38 39 39 40 40 41 41 42 42 43 43 44 44 45 45 46 46 47 47 48 48 49 49 50 50 51 51 52 52 53 53 54 54 55 55 56 56 57 57 58 58 59 59 60 60 61 61 62 62 63 63 64 64 65 65 66 66 67 67 68 68 69 69 70 70 71 71 72 72 73 73 74 74 75 75 76 76 77 77 78 78 79 79 80 80 81 81 82 82 83 83 84 84 85 85 86 86 87 87 88 88 89 89 90 90 91 91 92 92 93 93 94 94 95 95 96 96 97 97 98 98 99 99 100 100 101 101 102 102 103 103 104 104 105 105 106 106 107 107 108 108 109 109 110 110 111 111 112 112 113 113 114 114 115 115 116 116 117 117 118 118 119 119 120 120 121 121 122 122 123 123 124 124 125 125 126 126 127 
        </DataArray>
        <DataArray type="Int32" Name="offsets" format="ascii">
          2 4 6 8 10 12 14 16 18 20 22 24 26 28 30 32 34 36 38 40 42 44 46 48 50 52 54 56 58 60 62 64 66 68 70 72 74 76 78 80 82 84 86 88 90 92 94 96 98 100 102 104 106 108 110 112 114 116 118 120 122 124 126 128 130 132 134 136 138 140 142 144 146 148 150 152 154 156 158 160 162 164 166 168 170 172 174 176 178 180 182 184 186 188 190 192 194 196 198 200 202 204 206 208 210 212 214 216 218 220 222 224 226 228 230 232 234 236 238 240 242 244 246 248 250 252 254 
        </DataArray>
        <DataArray type="Int32" Name="types" format="ascii">
          3 3 3 3 3 3 3 3 3 3 3 3 3 3 3 3 3 3 3 3 3 3 3 3 3 3 3 3 3 3 3 3 3 3 3 3 3 3 3 3 3 3 3 3 3 3 3 3 3 3 3 3 3 3 3 3 3 3 3 3 3 3 3 3 3 3 3 3 3 3 3 3 3 3 3 3 3 3 3 3 3 3 3 3 3 3 3 3 3 3 3 3 3 3 3 3 3 3 3 3 3 3 3 3 3 3 3 3 3 3 3 3 3 3 3 3 3 3 3 3 3 3 3 3 3 3 3         </DataArray>
      </Cells>
    </Piece>
  </UnstructuredGrid>
</VTKFile>
<!-- DATA


-->
