<?xml version="1.0"?>
<VTKFile type="UnstructuredGrid" version="0.1" byte_order="LittleEndian">
  <UnstructuredGrid>
    <Piece NumberOfPoints="128" NumberOfCells="127">
      <PointData Scalars="u">
        <DataArray type="Float32" Name="Y" NumberOfComponents="2">

0 0
0.047647259669805181 0.00024486061187289503
0.047683024510543501 -0.010790382096907932
0.041714866766980149 -0.035204617816284187
0.02687033308663778 -0.07087240782910606
0.00090700504439815074 -0.11505313606253854
-0.037585189624868579 -0.16456011833957246
-0.089047818023150316 -0.21599819746050891
-0.15290461266616265 -0.26603891242631522
-0.22760649126272167 -0.31169672384398511
-0.31076421905757878 -0.35057005340645009
-0.39934942645342902 -0.38101691220384593
-0.48993606188283484 -0.40224531591326446
-0.5789510528996088 -0.41431135938785796
-0.66290517433733476 -0.4180303281730629
-0.73858197145613869 -0.41481645603936473
-0.80317234794847348 -0.4064735537589354
-0.85435305320078203 -0.39496135587797687
-0.89031685746581102 -0.38216157959310587
-0.90976921173006875 -0.369664500554861
-0.91190978661565747 -0.35859268735487304
-0.8964172013258932 -0.34947459279752585
-0.86345168638614644 -0.34217769227632222
-0.81368388917551071 -0.33590886035185125
-0.74834927423753617 -0.32928810515122225
-0.66931757155165927 -0.32049954599754554
-0.57915678830233563 -0.30751931217923106
-0.48116314318379838 -0.28841274897386648
-0.37932403252447233 -0.26168253047124035
-0.27818307544284404 -0.22663579267204065
-0.18258628576347569 -0.1837245430557754
-0.097307105843684363 -0.13480318521171347
-0.026573878081456389 -0.083244662436045877
0.026447946805335562 -0.03386664031776293
0.060141743583349928 0.0073567434008077947
0.074803683726399769 0.033785652965342285
0.072800176137409772 0.038753786065144576
0.058460904400170155 0.016264221324290919
0.037694015629298611 -0.038372217345358763
0.017362602997512317 -0.12806860127318453
0.0045090063535202238 -0.25374857377755572
0.0055427075938521992 -0.41442532216939815
0.025510696512425039 -0.60755397911512554
0.067545818469065669 -0.82958844040119872
0.13254609241338505 -1.0766413385108218
0.21908835523227843 -1.3451373649781362
0.32353534988431587 -1.6323637595269174
0.44026564868632717 -1.9368501762204704
0.56194434657005599 -2.2585431542884997
0.67975795410540985 -2.5987685237324545
0.78355496390667623 -2.959991677654334
0.83726352426280271 -3.3518744469693558
0.82720043802172449 -3.7702222988299123
0.78061104024588457 -4.194814787409137
0.69177423622404777 -4.6141661501387263
0.55696074420646513 -5.0165026224669331
0.3748115631212619 -5.3899707388257738
0.14661442180449427 -5.7229735994516036
-0.12356392556494865 -6.0046169713706687
-0.42892365527858567 -6.2252277367647029
-0.76017565176582624 -6.3768908956709485
-1.1059824782344132 -6.45394133551273
-1.4535725110781723 -6.4533455485466451
-1.7894803838039295 -6.3749176490746855
-2.1003489149266095 -6.2213326799355197
-2.3737182946096587 -5.9979255092260573
-2.5987296146026733 -5.7122912535140067
-2.7666817772853021 -5.3737281990051891
-2.8714011175536323 -4.9925823065446728
-2.9094077934793248 -4.5795608658341251
-2.8798876152073833 -4.1450811230913409
-2.7844984306330045 -3.6987092079596415
-2.6270537362296245 -3.2487283442082084
-2.4131317988808201 -2.8018566443609028
-2.1496568331096846 -2.363116995696017
-1.8444914064885769 -1.9358470074787566
-1.5060685246166621 -1.5218269370429849
-1.1430800464817863 -1.121498099490511
-0.76422706143984209 -0.73424284714970833
-0.37802888053748562 -0.35869869575185082
0.0073189973138831077 0.0069176081716519388
0.38405105491515473 0.36449636887621667
0.74491604601669603 0.71574798240469384
1.0832520989832151 1.0619556979266913
1.3930624129525284 1.4037781312331166
1.6690973462155774 1.7411090183896152
1.9069442198569315 2.0729992800596539
2.1031217306122607 2.3976438971417364
2.2551720017607839 2.7124331698639415
2.3617404632523407 3.0140645808601727
2.4226323148146642 3.2987078218295389
2.4388345204058566 3.5622118630859432
2.4124941514469516 3.8003396685652953
2.3468472608564834 4.0090137634751137
2.2460969300501792 4.1845547814889787
2.1152441085837337 4.3238956428678348
1.9598796855335365 4.42475621388704
1.7859502297735796 4.4857669867802743
1.5995124731783352 4.5065350789780769
1.4064925615743269 4.4876510960841083
1.2124653016034532 4.4306404882312274
1.0224662855285003 4.3378673590904437
0.84084628600311162 4.2124018139873591
0.67117320418514104 4.0578636211345955
0.51618267500592996 3.8782551953467554
0.37777466280630406 3.6777958817205989
0.25705036970653566 3.4607675411965708
0.15438172060526045 3.2313789104443758
0.069504621144913806 2.9936535110754829
0.0016270217156226256 2.7513433449281495
-0.050456608862335696 2.5078684680696366
-0.088251701850083408 2.2662809175109366
-0.11345679477405304 2.0292504057844827
-0.12786788955166203 1.7990686556980522
-0.13329681857020184 1.577669123398217
-0.13150509372140909 1.3666590265250318
-0.12415352419118723 1.1673609233692459
-0.11276692431498246 0.98086145659528523
-0.098712503480346075 0.80806518105893044
-0.083190033044611825 0.64975156719885174
-0.067231610626708835 0.50663326691491095
-0.051708777628396381 0.37941353379204806
-0.0373448779811991 0.26884031521978824
-0.024730858623429892 0.17575401237474145
-0.014343182100931292 0.10112528287949904
-0.0065631111401928018 0.046078598722932219
-0.0016972712970960949 0.011896633107775698
0 0

        </DataArray>
        <DataArray type="Float32" Name="W" NumberOfComponents="2">

-0.69849925056417883 0.35360820654517422
-0.69064651423733603 0.35302848093554334
-0.68286148024494053 0.35184744069900453
-0.67519241732644086 0.35006219024368718
-0.66768781671492128 0.34767836485257908
-0.66039463269384557 0.34471001460083295
-0.65335655519533609 0.34117914231667973
-0.64661240206936643 0.33711491705354996
-0.64019470972962378 0.33255260764883521
-0.63412858602708977 0.32753230075751605
-0.62843086980060681 0.32209748248899017
-0.62310961949153743 0.31629357119355117
-0.61816393067049924 0.31016649045602507
-0.61358406153557077 0.3037613660936011
-0.60935182840695823 0.2971214197399854
-0.60544122149798396 0.29028711579217031
-0.60181918567000514 0.28329559979532043
-0.59844651161921547 0.27618044651665796
-0.5952787894022894 0.26897171660309377
-0.59226738716158844 0.26169630304053454
-0.58936043167658891 0.2543785333513513
-0.58650378200801745 0.24704098079733108
-0.58364200102166808 0.23970542761871494
-0.58071934010752024 0.23239391514562427
-0.57768075833906918 0.22512980909963515
-0.57447299742749747 0.21793880345184632
-0.57104572740203607 0.21084978315641514
-0.56735276491823738 0.20389546581094384
-0.56335334717694219 0.19711274617943791
-0.55901342127937514 0.19054267721069876
-0.55430688411572349 0.18423003826406567
-0.54921668521164158 0.17822246666973957
-0.54373568863646571 0.17256916225888408
-0.53786718450321769 0.16731921415520795
-0.53162494940973026 0.1625196410426088
-0.52503278028639344 0.15821327470233218
-0.51812346679251198 0.15443664527514989
-0.51093721977577033 0.15121803919095805
-0.50351963059674643 0.14857589261996929
-0.4959192896618933 0.14651765348833301
-0.48818523348863324 0.14503919644131205
-0.48036441107425581 0.14412481432557836
-0.47249935882056526 0.14374774608562568
-0.46462624972274907 0.1438711443398408
-0.45677344200490327 0.14444934472508178
-0.44896060270044946 0.1454292786039911
-0.44119843152614052 0.1467518722136773
-0.43348896741573095 0.14835329644075232
-0.42582642940896093 0.15016596721929279
-0.41819852724643325 0.15211924106779154
-0.41058817400958975 0.15413979783355264
-0.40297554013985698 0.15615174893427114
-0.39531099439437412 0.15795588365167615
-0.38759516005162165 0.15952626434110301
-0.37983092502941745 0.16083656607947694
-0.37202379664497764 0.16186078876436294
-0.36418213288352791 0.16257398708335516
-0.35631722670644778 0.16295300544194768
-0.34844322625420004 0.1629771970021518
-0.34057688273653314 0.16262909917196491
-0.33273712885458145 0.1618950333977035
-0.32494450286595961 0.16076559595862416
-0.31722044563226443 0.15923600926628959
-0.30958650872739168 0.15730630999411246
-0.30206351951905208 0.154981360636992
-0.29467075295005002 0.1522706836712929
-0.28742515895701853 0.14918813078189899
-0.28034068915335253 0.14575141193173063
-0.27342775731110586 0.14198151881715276
-0.26669285656240477 0.13790208335650894
-0.26013834363778893 0.13353871377260362
-0.253762388393382 0.12891834866125368
-0.24755907661922805 0.12406866383818953
-0.24151864650784288 0.1190175587391247
-0.2356278345433743 0.11379273987158506
-0.22987030483964743 0.10842140938558478
-0.22422713665251517 0.10293005814501519
-0.21867734725335689 0.097344355366010216
-0.21319843084437326 0.091689121278142841
-0.20776689803912124 0.085988365446947643
-0.20235880406673046 0.080265371279395564
-0.19695025689527426 0.074542806617947002
-0.1915178986936274 0.068842840970829988
-0.18603935540771693 0.063187251585619136
-0.18049364979634278 0.057597503036130988
-0.17486157323460275 0.052094788077504922
-0.16912601119612586 0.046700021073413825
-0.16327221684641346 0.041433779162800582
-0.15728802689327107 0.03631619035206396
-0.1511640139862889 0.031366771710678081
-0.1448935707115715 0.02660422460602439
-0.1384729216795958 0.022046197209748264
-0.13190106234114471 0.017709027115007745
-0.12517962587283799 0.013607478618350084
-0.11831268254123564 0.0097544898930667923
-0.11130647910623935 0.0061609448457149501
-0.10416912875189915 0.002835482936546238
-0.096910264436863236 -0.00021564220580971239
-0.089540670189646301 -0.0029886477061694633
-0.082071905572099119 -0.0054822458085696506
-0.07451593823896184 -0.0076976072603930096
-0.066884798281573843 -0.0096382667311415444
-0.059190266005174741 -0.011309976230485805
-0.05144360216819166 -0.012720514751070019
-0.043655326763248521 -0.013879463830276335
-0.035835049402539738 -0.014797959387158234
-0.027991351518498051 -0.015488430110041137
-0.020131718091053127 -0.015964331969373694
-0.012262514592862027 -0.016239887266158697
-0.0043890033698805756 -0.016329835165973448
0.0034846072433512548 -0.016249199069605546
0.011355088171708921 -0.016013074566636299
0.019220096253390443 -0.0156364402082689
0.027078068921441257 -0.015133991985975571
0.034928112843105125 -0.014520001246782432
0.042769891578636803 -0.013808194821917275
0.050603516361193944 -0.013011655382650823
0.058429443121689462 -0.012142739445051518
0.066248377946827586 -0.011213010001244588
0.074061192310178728 -0.010233180439639037
0.081868848685884274 -0.0092130662197917636
0.089672336559447285 -0.0081615406893911797
0.097472618394062502 -0.0070864914833492975
0.10527058478588897 -0.0059947741513919949
0.11306701782820802 -0.0048921600531653215
0.12086256157342756 -0.0037832761772405698
0.12865769839686569 -0.0026715354235605647
0.13645272998713159 -0.0015590570774408228

        </DataArray>
        <DataArray type="Float32" Name="u" NumberOfComponents="1">
          0 0.007874015748031496 0.015748031496062992 0.023622047244094488 0.031496062992125984 0.03937007874015748 0.047244094488188976 0.055118110236220472 0.062992125984251968 0.070866141732283464 0.07874015748031496 0.086614173228346455 0.094488188976377951 0.10236220472440945 0.11023622047244094 0.11811023622047244 0.12598425196850394 0.13385826771653545 0.14173228346456693 0.14960629921259844 0.15748031496062992 0.16535433070866143 0.17322834645669291 0.18110236220472442 0.1889763779527559 0.19685039370078741 0.20472440944881889 0.2125984251968504 0.22047244094488189 0.2283464566929134 0.23622047244094488 0.24409448818897639 0.25196850393700787 0.25984251968503935 0.26771653543307089 0.27559055118110237 0.28346456692913385 0.29133858267716534 0.29921259842519687 0.30708661417322836 0.31496062992125984 0.32283464566929132 0.33070866141732286 0.33858267716535434 0.34645669291338582 0.3543307086614173 0.36220472440944884 0.37007874015748032 0.37795275590551181 0.38582677165354329 0.39370078740157483 0.40157480314960631 0.40944881889763779 0.41732283464566927 0.42519685039370081 0.43307086614173229 0.44094488188976377 0.44881889763779526 0.45669291338582679 0.46456692913385828 0.47244094488188976 0.48031496062992124 0.48818897637795278 0.49606299212598426 0.50393700787401574 0.51181102362204722 0.51968503937007871 0.52755905511811019 0.53543307086614178 0.54330708661417326 0.55118110236220474 0.55905511811023623 0.56692913385826771 0.57480314960629919 0.58267716535433067 0.59055118110236215 0.59842519685039375 0.60629921259842523 0.61417322834645671 0.62204724409448819 0.62992125984251968 0.63779527559055116 0.64566929133858264 0.65354330708661412 0.66141732283464572 0.6692913385826772 0.67716535433070868 0.68503937007874016 0.69291338582677164 0.70078740157480313 0.70866141732283461 0.71653543307086609 0.72440944881889768 0.73228346456692917 0.74015748031496065 0.74803149606299213 0.75590551181102361 0.76377952755905509 0.77165354330708658 0.77952755905511806 0.78740157480314965 0.79527559055118113 0.80314960629921262 0.8110236220472441 0.81889763779527558 0.82677165354330706 0.83464566929133854 0.84251968503937003 0.85039370078740162 0.8582677165354331 0.86614173228346458 0.87401574803149606 0.88188976377952755 0.88976377952755903 0.89763779527559051 0.90551181102362199 0.91338582677165359 0.92125984251968507 0.92913385826771655 0.93700787401574803 0.94488188976377951 0.952755905511811 0.96062992125984248 0.96850393700787396 0.97637795275590555 0.98425196850393704 0.99212598425196852 1
        </DataArray>
      </PointData>
      <CellData Scalars="P">
        <DataArray type="Float32" Name="P" NumberOfComponents="1">
          0.0039426627874917155 0.1626880864966439 0.4707126766553521 0.92088739696426947 1.5001977195090943 2.1898647596627159 2.9659590167185419 3.8004801914753226 4.6628272382123006 5.5215430764222155 6.3461925683119853 7.1092228500201307 7.7876619494036809 8.3645325584089569 8.8298886529451668 9.1814180145319515 9.4245881060358343 9.5723415797445988 9.6443680891586432 9.6659904319567644 9.6667070868088718 9.6784335758818489 9.7334866226961481 9.8623627701308809 10.091380952308414 10.440288257202745 10.919968312572113 11.530436949012586 12.259350519210715 13.081275639530228 13.957960959728856 14.839799490889019 15.668567641105714 16.381378168664451 16.915605409401209 17.214361660550871 17.231961036370922 16.938738772968577 16.324626343041764 15.40102206647455 14.200724583474161 12.775971997128634 11.194899983501919 9.5369467570625108 7.8878552738990013 6.3349397001351999 4.9632028046721199 3.8527383847012362 3.0776586632412384 2.706577020855041 2.804466455531029 4.2183061671052835 5.8255403738252181 7.5890957641597234 9.458282719714008 11.371018894706401 13.256986050707026 15.041507705654267 16.649893124985997 18.011951189693185 19.066347376941504 19.764470244274303 20.073499246852297 19.978426646878837 19.482878760253659 18.608694974621692 17.394341153717804 15.892340039727433 14.165980218407249 12.28560766873381 10.32480742456171 8.356751765359224 6.4509350216349288 4.6704454077988764 3.0698530083731028 1.6937296640328645 0.57576720551728666 -0.26157212393027118 -0.80695559209992662 -1.0597155659348667 -1.0290991120393211 -0.73329739329916421 -0.19830632311453977 0.54334304504404629 1.4539554089158957 2.4921192611271774 3.61420798424317 4.7759057533669935 5.9337230300529047 7.0464584383026594 8.0765568177836542 8.9913091857289302 9.7638407616854295 10.373839032981776 10.807985163981291 11.060068116253927 11.130780121314785 11.02721257125636 10.762090699264764 10.352801499576923 9.8202805453341018 9.1878287545450394 8.4799295546482423 7.7211308511757446 6.9350458189493507 6.1435132389664036 5.365943427698987 4.6188611641617836 3.9156435762629336 3.2664395380073095 2.6782482543844153 2.155128574468248 1.6985071425007623 1.3075525705303694 0.9795840864653963 0.7104862107903186 0.49510555114356686 0.32761138246708532 0.20180792303687003 0.11139277234625024 0.050162527043631895 0.012172842454617876 -0.008134136589676615 -0.015817344473775339 -0.015318466763114663 -0.010315729816839547 -0.00352997546998774
        </DataArray>
      </CellData>
      <Points>
        <DataArray type="Float32" NumberOfComponents="3" format="ascii">
          -0.69849925056417883 0.35360820654517422 0
          -0.69064651423733603 0.35302848093554334 0
          -0.68286148024494053 0.35184744069900453 0
          -0.67519241732644086 0.35006219024368718 0
          -0.66768781671492128 0.34767836485257908 0
          -0.66039463269384557 0.34471001460083295 0
          -0.65335655519533609 0.34117914231667973 0
          -0.64661240206936643 0.33711491705354996 0
          -0.64019470972962378 0.33255260764883521 0
          -0.63412858602708977 0.32753230075751605 0
          -0.62843086980060681 0.32209748248899017 0
          -0.62310961949153743 0.31629357119355117 0
          -0.61816393067049924 0.31016649045602507 0
          -0.61358406153557077 0.3037613660936011 0
          -0.60935182840695823 0.2971214197399854 0
          -0.60544122149798396 0.29028711579217031 0
          -0.60181918567000514 0.28329559979532043 0
          -0.59844651161921547 0.27618044651665796 0
          -0.5952787894022894 0.26897171660309377 0
          -0.59226738716158844 0.26169630304053454 0
          -0.58936043167658891 0.2543785333513513 0
          -0.58650378200801745 0.24704098079733108 0
          -0.58364200102166808 0.23970542761871494 0
          -0.58071934010752024 0.23239391514562427 0
          -0.57768075833906918 0.22512980909963515 0
          -0.57447299742749747 0.21793880345184632 0
          -0.57104572740203607 0.21084978315641514 0
          -0.56735276491823738 0.20389546581094384 0
          -0.56335334717694219 0.19711274617943791 0
          -0.55901342127937514 0.19054267721069876 0
          -0.55430688411572349 0.18423003826406567 0
          -0.54921668521164158 0.17822246666973957 0
          -0.54373568863646571 0.17256916225888408 0
          -0.53786718450321769 0.16731921415520795 0
          -0.53162494940973026 0.1625196410426088 0
          -0.52503278028639344 0.15821327470233218 0
          -0.51812346679251198 0.15443664527514989 0
          -0.51093721977577033 0.15121803919095805 0
          -0.50351963059674643 0.14857589261996929 0
          -0.4959192896618933 0.14651765348833301 0
          -0.48818523348863324 0.14503919644131205 0
          -0.48036441107425581 0.14412481432557836 0
          -0.47249935882056526 0.14374774608562568 0
          -0.46462624972274907 0.1438711443398408 0
          -0.45677344200490327 0.14444934472508178 0
          -0.44896060270044946 0.1454292786039911 0
          -0.44119843152614052 0.1467518722136773 0
          -0.43348896741573095 0.14835329644075232 0
          -0.42582642940896093 0.15016596721929279 0
          -0.41819852724643325 0.15211924106779154 0
          -0.41058817400958975 0.15413979783355264 0
          -0.40297554013985698 0.15615174893427114 0
          -0.39531099439437412 0.15795588365167615 0
          -0.38759516005162165 0.15952626434110301 0
          -0.37983092502941745 0.16083656607947694 0
          -0.37202379664497764 0.16186078876436294 0
          -0.36418213288352791 0.16257398708335516 0
          -0.35631722670644778 0.16295300544194768 0
          -0.34844322625420004 0.1629771970021518 0
          -0.34057688273653314 0.16262909917196491 0
          -0.33273712885458145 0.1618950333977035 0
          -0.32494450286595961 0.16076559595862416 0
          -0.31722044563226443 0.15923600926628959 0
          -0.30958650872739168 0.15730630999411246 0
          -0.30206351951905208 0.154981360636992 0
          -0.29467075295005002 0.1522706836712929 0
          -0.28742515895701853 0.14918813078189899 0
          -0.28034068915335253 0.14575141193173063 0
          -0.27342775731110586 0.14198151881715276 0
          -0.26669285656240477 0.13790208335650894 0
          -0.26013834363778893 0.13353871377260362 0
          -0.253762388393382 0.12891834866125368 0
          -0.24755907661922805 0.12406866383818953 0
          -0.24151864650784288 0.1190175587391247 0
          -0.2356278345433743 0.11379273987158506 0
          -0.22987030483964743 0.10842140938558478 0
          -0.22422713665251517 0.10293005814501519 0
          -0.21867734725335689 0.097344355366010216 0
          -0.21319843084437326 0.091689121278142841 0
          -0.20776689803912124 0.085988365446947643 0
          -0.20235880406673046 0.080265371279395564 0
          -0.19695025689527426 0.074542806617947002 0
          -0.1915178986936274 0.068842840970829988 0
          -0.18603935540771693 0.063187251585619136 0
          -0.18049364979634278 0.057597503036130988 0
          -0.17486157323460275 0.052094788077504922 0
          -0.16912601119612586 0.046700021073413825 0
          -0.16327221684641346 0.041433779162800582 0
          -0.15728802689327107 0.03631619035206396 0
          -0.1511640139862889 0.031366771710678081 0
          -0.1448935707115715 0.02660422460602439 0
          -0.1384729216795958 0.022046197209748264 0
          -0.13190106234114471 0.017709027115007745 0
          -0.12517962587283799 0.013607478618350084 0
          -0.11831268254123564 0.0097544898930667923 0
          -0.11130647910623935 0.0061609448457149501 0
          -0.10416912875189915 0.002835482936546238 0
          -0.096910264436863236 -0.00021564220580971239 0
          -0.089540670189646301 -0.0029886477061694633 0
          -0.082071905572099119 -0.0054822458085696506 0
          -0.07451593823896184 -0.0076976072603930096 0
          -0.066884798281573843 -0.0096382667311415444 0
          -0.059190266005174741 -0.011309976230485805 0
          -0.05144360216819166 -0.012720514751070019 0
          -0.043655326763248521 -0.013879463830276335 0
          -0.035835049402539738 -0.014797959387158234 0
          -0.027991351518498051 -0.015488430110041137 0
          -0.020131718091053127 -0.015964331969373694 0
          -0.012262514592862027 -0.016239887266158697 0
          -0.0043890033698805756 -0.016329835165973448 0
          0.0034846072433512548 -0.016249199069605546 0
          0.011355088171708921 -0.016013074566636299 0
          0.019220096253390443 -0.0156364402082689 0
          0.027078068921441257 -0.015133991985975571 0
          0.034928112843105125 -0.014520001246782432 0
          0.042769891578636803 -0.013808194821917275 0
          0.050603516361193944 -0.013011655382650823 0
          0.058429443121689462 -0.012142739445051518 0
          0.066248377946827586 -0.011213010001244588 0
          0.074061192310178728 -0.010233180439639037 0
          0.081868848685884274 -0.0092130662197917636 0
          0.089672336559447285 -0.0081615406893911797 0
          0.097472618394062502 -0.0070864914833492975 0
          0.10527058478588897 -0.0059947741513919949 0
          0.11306701782820802 -0.0048921600531653215 0
          0.12086256157342756 -0.0037832761772405698 0
          0.12865769839686569 -0.0026715354235605647 0
          0.13645272998713159 -0.0015590570774408228 0
        </DataArray>
      </Points>
      <Cells>
        <DataArray type="Int32" Name="connectivity" format="ascii">
          0 1 1 2 2 3 3 4 4 5 5 6 6 7 7 8 8 9 9 10 10 11 11 12 12 13 13 14 14 15 15 16 16 17 17 18 18 19 19 20 20 21 21 22 22 23 23 24 24 25 25 26 26 27 27 28 28 29 29 30 30 31 31 32 32 33 33 34 34 35 35 36 36 37 37 38 38 39 39 40 40 41 41 42 42 43 43 44 44 45 45 46 46 47 47 48 48 49 49 50 50 51 51 52 52 53 53 54 54 55 55 56 56 57 57 58 58 59 59 60 60 61 61 62 62 63 63 64 64 65 65 66 66 67 67 68 68 69 69 70 70 71 71 72 72 73 73 74 74 75 75 76 76 77 77 78 78 79 79 80 80 81 81 82 82 83 83 84 84 85 85 86 86 87 87 88 88 89 89 90 90 91 91 92 92 93 93 94 94 95 95 96 96 97 97 98 98 99 99 100 100 101 101 102 102 103 103 104 104 105 105 106 106 107 107 108 108 109 109 110 110 111 111 112 112 113 113 114 114 115 115 116 116 117 117 118 118 119 119 120 120 121 121 122 122 123 123 124 124 125 125 126 126 127 
        </DataArray>
        <DataArray type="Int32" Name="offsets" format="ascii">
          2 4 6 8 10 12 14 16 18 20 22 24 26 28 30 32 34 36 38 40 42 44 46 48 50 52 54 56 58 60 62 64 66 68 70 72 74 76 78 80 82 84 86 88 90 92 94 96 98 100 102 104 106 108 110 112 114 116 118 120 122 124 126 128 130 132 134 136 138 140 142 144 146 148 150 152 154 156 158 160 162 164 166 168 170 172 174 176 178 180 182 184 186 188 190 192 194 196 198 200 202 204 206 208 210 212 214 216 218 220 222 224 226 228 230 232 234 236 238 240 242 244 246 248 250 252 254 
        </DataArray>
        <DataArray type="Int32" Name="types" format="ascii">
          3 3 3 3 3 3 3 3 3 3 3 3 3 3 3 3 3 3 3 3 3 3 3 3 3 3 3 3 3 3 3 3 3 3 3 3 3 3 3 3 3 3 3 3 3 3 3 3 3 3 3 3 3 3 3 3 3 3 3 3 3 3 3 3 3 3 3 3 3 3 3 3 3 3 3 3 3 3 3 3 3 3 3 3 3 3 3 3 3 3 3 3 3 3 3 3 3 3 3 3 3 3 3 3 3 3 3 3 3 3 3 3 3 3 3 3 3 3 3 3 3 3 3 3 3 3 3         </DataArray>
      </Cells>
    </Piece>
  </UnstructuredGrid>
</VTKFile>
<!-- DATA


-->
