<?xml version="1.0"?>
<VTKFile type="UnstructuredGrid" version="0.1" byte_order="LittleEndian">
  <UnstructuredGrid>
    <Piece NumberOfPoints="128" NumberOfCells="127">
      <PointData Scalars="u">
        <DataArray type="Float32" Name="Y" NumberOfComponents="2">

0 0
0.012987208630652343 -0.0090476499418574163
0.015140447271091173 -0.029553528714212341
0.020851450948915946 -0.05652327349897969
0.029586609333129892 -0.088231601854930869
0.040396541746484355 -0.12304886390116097
0.052046062847173745 -0.15942747688998896
0.063155045125891082 -0.19586558787962557
0.072345128694115232 -0.23085960339832787
0.078387850760094205 -0.2628601177380368
0.080349064110187565 -0.29024644330395094
0.077722403656954001 -0.31133327199256694
0.070541574624896727 -0.3244189095382406
0.05945842480080981 -0.32787814587643371
0.045772483972049083 -0.32029465282143893
0.031399200517434785 -0.3006188806887734
0.018769293710066231 -0.26832935559156795
0.010660406518763293 -0.22356998804679429
0.0099733922245221485 -0.16723528925710954
0.01947690290506298 -0.10098032161693508
0.041552694546441872 -0.027142601693066811
0.077977656666138456 0.05142262910914458
0.12977547452667751 0.13157723150046058
0.1971611043717916 0.21017593518444885
0.27958669492283855 0.28434676142823573
0.37588130275278292 0.35173989464347377
0.48446222176599291 0.41071599978968215
0.60358590267421963 0.46045750591510054
0.73160283979153629 0.50100127511171177
0.86718335663548585 0.53320511171392793
1.0094883548474554 0.55867105317111365
1.1582683446196247 0.57965372124269499
1.3138828352727125 0.59898181921982596
1.477238327766077 0.62001572143765105
1.6496455635270193 0.64665507967470659
1.8325953356550313 0.6833984900975556
2.0274481959733297 0.73544313470580835
2.235029011318439 0.80879602251290506
2.4551157613333836 0.91034984542152142
2.6858174033633841 1.0478557609034638
2.9228529587136598 1.229704319151403
3.1587781404684043 1.4644088144634897
3.3822601982843423 1.7596813658410169
3.5775749300794333 2.1210147889523383
3.7245815925482644 2.5497502376891812
3.7994971356942933 3.0407376415607934
3.7767993190259057 3.5798871466421636
3.6324852680623838 4.1421417099751441
3.348650504362594 4.690607933973272
2.918926322157644 5.1776534314472134
2.353794837948568 5.5485849662689075
1.8459849816019767 5.692166789485781
1.5407672368354508 5.6317700801386312
1.2322851245245114 5.4586528753535655
0.93972408287293163 5.1865598249983522
0.67716511847971561 4.8303498750827965
0.45374790393967113 4.4051652023797283
0.27411138830065485 3.9256883568362091
0.13901995575336618 3.405568868225807
0.046086297204333604 2.8570525298846614
-0.0094837551348734509 2.2908098977217777
-0.034179502013153153 1.7159363454886407
-0.035541342438617785 1.1400831401249416
-0.021601087688877977 0.56967500135642724
-0.00040974820933057553 0.010171677796021121
0.02035271163390355 -0.53366332241821024
0.033695272569800774 -1.0575164827154586
0.033571553724067046 -1.557322534521153
0.015081485094848541 -2.029121888531821
-0.025376146079658116 -2.4689850517603289
-0.089998974663673306 -2.8730055021417891
-0.17952589654328635 -3.2373566521225605
-0.29323502811038438 -3.5584032440803517
-0.42899856383128998 -3.8328529671860969
-0.58339679060216487 -4.0579305761859477
-0.75189042599213018 -4.2315547022668127
-0.92904622247935487 -4.3524972183858592
-1.10880607632478 -4.420506660470207
-1.284785475432016 -4.4363807838453599
-1.4505837769820014 -4.4019785443052557
-1.6000871385690614 -4.3201680618550951
-1.7277452777402926 -4.1947136917568901
-1.8288056146717642 -4.030111368808285
-1.8994924380064 -3.8313861656916317
-1.9371239351695753 -3.6038689852846155
-1.9401655146035339 -3.3529702522746407
-1.9082230819655206 -3.0839674546536351
-1.8419841986689434 -2.8018207535402828
-1.743117951542698 -2.5110271469593877
-1.6141457371112107 -2.2155194295324816
-1.4582950961563763 -1.9186119839244973
-1.2793474802819023 -1.6229917094673432
-1.0814887605515788 -1.3307494184018018
-0.86916879670799341 -1.0434449321460413
-0.64697384542574565 -0.7621978718653053
-0.419513297258857 -0.48779564689037086
-0.19132040341854489 -0.2208102382103016
0.033234597321305723 0.0382841213711596
0.250021182592086 0.28899950431428489
0.45521737664603701 0.53073530570836946
0.64537257683032656 0.7626969521719893
0.81746544888122064 0.98383648972028848
0.96895693916473036 1.192818138304478
1.0978373531854624 1.3880107321883417
1.2026654342315957 1.5675077166862494
1.282596592701414 1.7291740514940834
1.337397014250062 1.8707180170205582
1.3674404125511745 1.9897846018583187
1.3736847440061084 2.0840659655795823
1.3576272673790226 2.1514235360610381
1.3212378543720209 2.1900157251724899
1.2668723183366262 2.1984251197943552
1.1971695663587336 2.1757793637110949
1.1149383899391712 2.1218607690206528
1.023041483872867 2.037200882709107
0.92428560953773375 1.9231576231745835
0.82132751489728151 1.7819739769807426
0.71660513357130751 1.616818376812895
0.61230258471056254 1.4318075607872411
0.51035548647090645 1.2320128057556596
0.41249999669726939 1.023449918860438
0.32036474797179942 0.81305240342901708
0.23559943400006098 0.60862610278126894
0.16002730377562349 0.41878283796710175
0.095801456274625871 0.25285064717003136
0.045537061614084322 0.12075970589263478
0.01238420661730935 0.032906095921920418
0 0

        </DataArray>
        <DataArray type="Float32" Name="W" NumberOfComponents="2">

-2.3859610895234389 1.0569299658905369
-2.3782690254806065 1.058613026852572
-2.370640110080763 1.0605624023390485
-2.3630682989749658 1.0627229536782055
-2.3555423719196358 1.0650382594819865
-2.3480471511720324 1.0674511052842679
-2.3405648832703179 1.0699038170519846
-2.3330767252471483 1.0723384869051502
-2.3255642783978834 1.0746971521043791
-2.3180111135370565 1.0769219940636998
-2.3104042306202626 1.0789556223500418
-2.3027353929696055 1.080741499323927
-2.2950022732783406 1.0822245447393519
-2.2872093469195023 1.083351937323459
-2.2793684700029839 1.0840741038552828
-2.271499087131204 1.0843458580380567
-2.2636280282584211 1.0841276246126956
-2.255788875722764 1.0833866621268862
-2.2480209102687501 1.0820981838589558
-2.2403676761883715 1.0802462731966673
-2.2328752369575215 1.0778244986220806
-2.2255902197904414 1.0748361540317775
-2.218557766474559 1.071294080348598
-2.2118195157744966 1.0672200606773208
-2.2054117382781016 1.0626438191163157
-2.1993637283101668 1.0576016880970613
-2.1936965317012582 1.0521350367519844
-2.1884220562961967 1.0462885705377469
-2.1835425782808016 1.0401086189998869
-2.1790506257947322 1.0336415246068085
-2.1749291953227443 1.026932232793667
-2.1711522384091171 1.0200231643854192
-2.167685347519487 1.0129534293649172
-2.1644865704575009 1.0057584182565804
-2.161507291807975 0.99846978633160965
-2.1586931359906423 0.9911158276530776
-2.1559848678984355 0.98372222092650574
-2.1533192918428967 0.97631311648838259
-2.1506301756312549 0.96891252198191224
-2.147849251875523 0.96154593112460174
-2.1449073705022221 0.95424212293454558
-2.1417358915852351 0.94703503547749901
-2.1382684117159085 0.93996558711120903
-2.1344429046414288 0.93308327967221905
-2.1302043215237352 0.92644737552147982
-2.1255076319695827 0.9201274017456218
-2.1203211908169837 0.91420271339207093
-2.1146301908258081 0.90876086167478631
-2.1084398219224889 0.90389458296349678
-2.1017776314421197 0.89969736602365824
-2.0946945080840904 0.89625777020570774
-2.0872637417084787 0.89365293318202144
-2.0797185302955072 0.89140102115396924
-2.0720777981986283 0.88949828825969257
-2.0643606718680436 0.88793399981760446
-2.0565852903362751 0.88669128460607416
-2.0487679322088228 0.88574805621289865
-2.0409224490395972 0.88507795192248617
-2.0330599777644673 0.88465124308120591
-2.0251888933630875 0.88443568139131523
-2.0173149569247073 0.8843972581521643
-2.0094416129340118 0.88450086582006593
-2.0015703916478027 0.88471086189517534
-1.9937013766318064 0.88499154326679241
-1.9858337027576873 0.88530754450995897
-1.9779660553843381 0.88562417635448365
-1.970097146529751 0.885907720990327
-1.9622261483251573 0.88612569947868047
-1.9543530678995424 0.88624712377809967
-1.9464790511914882 0.88624274222565325
-1.9386066062306366 0.88608528315943147
-1.9307397393958339 0.88574969712393237
-1.9228840012293911 0.88521339412588651
-1.9150464416802087 0.88445646903289854
-1.907235478176206 0.88346190571319572
-1.8994606835944068 0.88221574911937661
-1.8917325048134512 0.88070723435199594
-1.884061925836223 0.87892886282045679
-1.8764600921680374 0.876876417847407
-1.8689379149552627 0.87454891521681732
-1.8615056741229932 0.8719484879220929
-1.8541726392950517 0.86908020834022603
-1.8469467256568963 0.86595185483393677
-1.8398341992795333 0.86257363299133216
-1.8328394430136072 0.85895786405573693
-1.8259647902099674 0.85511865439226797
-1.8192104295726703 0.85107156002381934
-1.8125743807270764 0.84683325941029786
-1.8060525368541087 0.84242124590447487
-1.7996387681816362 0.83785354892712927
-1.7933250783205883 0.83314849012645498
-1.787101804382591 0.82832447788277785
-1.7809578514398414 0.82339984072083028
-1.7748809520581712 0.81839269768259715
-1.7688579421962147 0.81332086162418937
-1.7628750455598468 0.80820176980706293
-1.7569181593896179 0.80305243508760416
-1.7509731355264166 0.79788941046382711
-1.7450260513694706 0.79272875968237555
-1.7390634659713164 0.7875860269958157
-1.7330726570025041 0.78247619993282325
-1.7270418346909779 0.77741366004084533
-1.7209603291467195 0.77241211791742603
-1.7148187477848942 0.76748453039442976
-1.7086090999285533 0.76264299940644675
-1.7023248861678566 0.75789865378327059
-1.6959611507254295 0.75326151687467413
-1.68951449595296 0.74874036445978942
-1.6829830591602264 0.74434257873150511
-1.6763664532201779 0.74007400520501221
-1.669665673736382 0.73593882012097356
-1.6628829769076983 0.73193941626209991
-1.6560217334639895 0.72807631506931259
-1.6490862650497049 0.72434811255241505
-1.6420816700746006 0.72075146579130889
-1.6350136462227121 0.71728112589090232
-1.6278883164297084 0.71393002217209278
-1.6207120641617703 0.71068940123786584
-1.6134913822617643 0.7075490234177455
-1.6062327375327494 0.70449741800766152
-1.5989424507293395 0.70152219769150737
-1.591626588916303 0.69861043152371238
-1.5842908644943043 0.69574907480902104
-1.5769405329202928 0.69292545306735154
-1.5695802796677789 0.69012779596929408
-1.5622140867366261 0.68734581567714126
-1.5548450705145702 0.68457132251857888
-1.5474752864739969 0.68179886954677738

        </DataArray>
        <DataArray type="Float32" Name="u" NumberOfComponents="1">
          0 0.007874015748031496 0.015748031496062992 0.023622047244094488 0.031496062992125984 0.03937007874015748 0.047244094488188976 0.055118110236220472 0.062992125984251968 0.070866141732283464 0.07874015748031496 0.086614173228346455 0.094488188976377951 0.10236220472440945 0.11023622047244094 0.11811023622047244 0.12598425196850394 0.13385826771653545 0.14173228346456693 0.14960629921259844 0.15748031496062992 0.16535433070866143 0.17322834645669291 0.18110236220472442 0.1889763779527559 0.19685039370078741 0.20472440944881889 0.2125984251968504 0.22047244094488189 0.2283464566929134 0.23622047244094488 0.24409448818897639 0.25196850393700787 0.25984251968503935 0.26771653543307089 0.27559055118110237 0.28346456692913385 0.29133858267716534 0.29921259842519687 0.30708661417322836 0.31496062992125984 0.32283464566929132 0.33070866141732286 0.33858267716535434 0.34645669291338582 0.3543307086614173 0.36220472440944884 0.37007874015748032 0.37795275590551181 0.38582677165354329 0.39370078740157483 0.40157480314960631 0.40944881889763779 0.41732283464566927 0.42519685039370081 0.43307086614173229 0.44094488188976377 0.44881889763779526 0.45669291338582679 0.46456692913385828 0.47244094488188976 0.48031496062992124 0.48818897637795278 0.49606299212598426 0.50393700787401574 0.51181102362204722 0.51968503937007871 0.52755905511811019 0.53543307086614178 0.54330708661417326 0.55118110236220474 0.55905511811023623 0.56692913385826771 0.57480314960629919 0.58267716535433067 0.59055118110236215 0.59842519685039375 0.60629921259842523 0.61417322834645671 0.62204724409448819 0.62992125984251968 0.63779527559055116 0.64566929133858264 0.65354330708661412 0.66141732283464572 0.6692913385826772 0.67716535433070868 0.68503937007874016 0.69291338582677164 0.70078740157480313 0.70866141732283461 0.71653543307086609 0.72440944881889768 0.73228346456692917 0.74015748031496065 0.74803149606299213 0.75590551181102361 0.76377952755905509 0.77165354330708658 0.77952755905511806 0.78740157480314965 0.79527559055118113 0.80314960629921262 0.8110236220472441 0.81889763779527558 0.82677165354330706 0.83464566929133854 0.84251968503937003 0.85039370078740162 0.8582677165354331 0.86614173228346458 0.87401574803149606 0.88188976377952755 0.88976377952755903 0.89763779527559051 0.90551181102362199 0.91338582677165359 0.92125984251968507 0.92913385826771655 0.93700787401574803 0.94488188976377951 0.952755905511811 0.96062992125984248 0.96850393700787396 0.97637795275590555 0.98425196850393704 0.99212598425196852 1
        </DataArray>
      </PointData>
      <CellData Scalars="P">
        <DataArray type="Float32" Name="P" NumberOfComponents="1">
          0.0040206610361363509 -0.034089365637712636 -0.094159474834881407 -0.15484462849937528 -0.19870032565291118 -0.21307581935634592 -0.190759151959006 -0.13031495115291852 -0.036081063604189771 0.082189467067013952 0.21003623440034672 0.32932498610126543 0.41956027889744735 0.45940488820546754 0.42830643897671472 0.30810762877211673 0.08450114103207107 -0.25181036029066101 -0.70437086007428584 -1.2707285667754027 -1.9427249953111696 -2.7072828775809095 -3.5475969448245515 -4.4445783648408232 -5.3783688394924605 -6.3297292035430619 -7.2811207253570522 -8.2173320793964688 -9.1255551310144138 -9.9948710277685286 -10.815167963259274 -11.575568665942798 -12.262497225728506 -12.857562184665024 -13.335478968825402 -13.662303766593752 -13.794306092520602 -13.677868622000252 -13.250864617003002 -12.446010394347685 -11.196695409208905 -9.4457136606601519 -7.1571018229356538 -4.3308706720375749 -1.0197492486203068 2.6538551892791942 6.4835519788731411 10.171187190999664 13.33000066463136 15.502730913645394 16.196923400736178 15.727207514809839 14.654253383517357 13.124745823614999 11.288325135130355 9.2877187323288091 7.2519285320381925 5.2919686106903967 3.4986634504244103 1.9420356298310111 0.67184898259887738 -0.28106975095398767 -0.90303728845964015 -1.1954795738206665 -1.1728167051962675 -0.86036466098470799 -0.29230242649816257 0.49028144879599272 1.4412692481948806 2.511335573799621 3.6497214300670224 4.8059622083938098 5.9315561886345689 6.9815441969497867 7.9159568604960127 8.7010761483862193 9.3104545730729598 9.7256395935294062 9.9365623543444759 9.9415677418876829 9.7470847207959306 9.366959301710029 8.8214943876495919 8.1362585564796444 7.3407376632333783 6.4669080374207528 5.547808064159252 4.616177019168874 3.703217758414922 2.837525134039891 2.0442067045089019 1.3442080438013966 0.75384290928184838 0.28451937637404784 -0.05735302312955904 -0.27029332945386136 -0.35753537217122106 -0.32668837357982916 -0.18928836920940104 0.039745125277313199 0.34273440501923957 0.69993883327648576 1.0903077584890146 1.4922772366559722 1.8845939896778579 2.2471463721877631 2.5617778811343968 2.8130543867244571 2.9889523169960679 3.0814320358759573 3.0868591410328232 3.0062368533515333 2.8452155001056907 2.6138506954108367 2.3260905818943192 1.9989848430025043 1.6516246356566655 1.3038437081773029 0.97473732358205012 0.68108755260926068 0.43582081142878953 0.24666491001360294 0.11521539899433191 0.036659457006965421 0.00043210139304278219 -0.0079163361586385896 -0.0033931692028915236
        </DataArray>
      </CellData>
      <Points>
        <DataArray type="Float32" NumberOfComponents="3" format="ascii">
          -2.3859610895234389 1.0569299658905369 0
          -2.3782690254806065 1.058613026852572 0
          -2.370640110080763 1.0605624023390485 0
          -2.3630682989749658 1.0627229536782055 0
          -2.3555423719196358 1.0650382594819865 0
          -2.3480471511720324 1.0674511052842679 0
          -2.3405648832703179 1.0699038170519846 0
          -2.3330767252471483 1.0723384869051502 0
          -2.3255642783978834 1.0746971521043791 0
          -2.3180111135370565 1.0769219940636998 0
          -2.3104042306202626 1.0789556223500418 0
          -2.3027353929696055 1.080741499323927 0
          -2.2950022732783406 1.0822245447393519 0
          -2.2872093469195023 1.083351937323459 0
          -2.2793684700029839 1.0840741038552828 0
          -2.271499087131204 1.0843458580380567 0
          -2.2636280282584211 1.0841276246126956 0
          -2.255788875722764 1.0833866621268862 0
          -2.2480209102687501 1.0820981838589558 0
          -2.2403676761883715 1.0802462731966673 0
          -2.2328752369575215 1.0778244986220806 0
          -2.2255902197904414 1.0748361540317775 0
          -2.218557766474559 1.071294080348598 0
          -2.2118195157744966 1.0672200606773208 0
          -2.2054117382781016 1.0626438191163157 0
          -2.1993637283101668 1.0576016880970613 0
          -2.1936965317012582 1.0521350367519844 0
          -2.1884220562961967 1.0462885705377469 0
          -2.1835425782808016 1.0401086189998869 0
          -2.1790506257947322 1.0336415246068085 0
          -2.1749291953227443 1.026932232793667 0
          -2.1711522384091171 1.0200231643854192 0
          -2.167685347519487 1.0129534293649172 0
          -2.1644865704575009 1.0057584182565804 0
          -2.161507291807975 0.99846978633160965 0
          -2.1586931359906423 0.9911158276530776 0
          -2.1559848678984355 0.98372222092650574 0
          -2.1533192918428967 0.97631311648838259 0
          -2.1506301756312549 0.96891252198191224 0
          -2.147849251875523 0.96154593112460174 0
          -2.1449073705022221 0.95424212293454558 0
          -2.1417358915852351 0.94703503547749901 0
          -2.1382684117159085 0.93996558711120903 0
          -2.1344429046414288 0.93308327967221905 0
          -2.1302043215237352 0.92644737552147982 0
          -2.1255076319695827 0.9201274017456218 0
          -2.1203211908169837 0.91420271339207093 0
          -2.1146301908258081 0.90876086167478631 0
          -2.1084398219224889 0.90389458296349678 0
          -2.1017776314421197 0.89969736602365824 0
          -2.0946945080840904 0.89625777020570774 0
          -2.0872637417084787 0.89365293318202144 0
          -2.0797185302955072 0.89140102115396924 0
          -2.0720777981986283 0.88949828825969257 0
          -2.0643606718680436 0.88793399981760446 0
          -2.0565852903362751 0.88669128460607416 0
          -2.0487679322088228 0.88574805621289865 0
          -2.0409224490395972 0.88507795192248617 0
          -2.0330599777644673 0.88465124308120591 0
          -2.0251888933630875 0.88443568139131523 0
          -2.0173149569247073 0.8843972581521643 0
          -2.0094416129340118 0.88450086582006593 0
          -2.0015703916478027 0.88471086189517534 0
          -1.9937013766318064 0.88499154326679241 0
          -1.9858337027576873 0.88530754450995897 0
          -1.9779660553843381 0.88562417635448365 0
          -1.970097146529751 0.885907720990327 0
          -1.9622261483251573 0.88612569947868047 0
          -1.9543530678995424 0.88624712377809967 0
          -1.9464790511914882 0.88624274222565325 0
          -1.9386066062306366 0.88608528315943147 0
          -1.9307397393958339 0.88574969712393237 0
          -1.9228840012293911 0.88521339412588651 0
          -1.9150464416802087 0.88445646903289854 0
          -1.907235478176206 0.88346190571319572 0
          -1.8994606835944068 0.88221574911937661 0
          -1.8917325048134512 0.88070723435199594 0
          -1.884061925836223 0.87892886282045679 0
          -1.8764600921680374 0.876876417847407 0
          -1.8689379149552627 0.87454891521681732 0
          -1.8615056741229932 0.8719484879220929 0
          -1.8541726392950517 0.86908020834022603 0
          -1.8469467256568963 0.86595185483393677 0
          -1.8398341992795333 0.86257363299133216 0
          -1.8328394430136072 0.85895786405573693 0
          -1.8259647902099674 0.85511865439226797 0
          -1.8192104295726703 0.85107156002381934 0
          -1.8125743807270764 0.84683325941029786 0
          -1.8060525368541087 0.84242124590447487 0
          -1.7996387681816362 0.83785354892712927 0
          -1.7933250783205883 0.83314849012645498 0
          -1.787101804382591 0.82832447788277785 0
          -1.7809578514398414 0.82339984072083028 0
          -1.7748809520581712 0.81839269768259715 0
          -1.7688579421962147 0.81332086162418937 0
          -1.7628750455598468 0.80820176980706293 0
          -1.7569181593896179 0.80305243508760416 0
          -1.7509731355264166 0.79788941046382711 0
          -1.7450260513694706 0.79272875968237555 0
          -1.7390634659713164 0.7875860269958157 0
          -1.7330726570025041 0.78247619993282325 0
          -1.7270418346909779 0.77741366004084533 0
          -1.7209603291467195 0.77241211791742603 0
          -1.7148187477848942 0.76748453039442976 0
          -1.7086090999285533 0.76264299940644675 0
          -1.7023248861678566 0.75789865378327059 0
          -1.6959611507254295 0.75326151687467413 0
          -1.68951449595296 0.74874036445978942 0
          -1.6829830591602264 0.74434257873150511 0
          -1.6763664532201779 0.74007400520501221 0
          -1.669665673736382 0.73593882012097356 0
          -1.6628829769076983 0.73193941626209991 0
          -1.6560217334639895 0.72807631506931259 0
          -1.6490862650497049 0.72434811255241505 0
          -1.6420816700746006 0.72075146579130889 0
          -1.6350136462227121 0.71728112589090232 0
          -1.6278883164297084 0.71393002217209278 0
          -1.6207120641617703 0.71068940123786584 0
          -1.6134913822617643 0.7075490234177455 0
          -1.6062327375327494 0.70449741800766152 0
          -1.5989424507293395 0.70152219769150737 0
          -1.591626588916303 0.69861043152371238 0
          -1.5842908644943043 0.69574907480902104 0
          -1.5769405329202928 0.69292545306735154 0
          -1.5695802796677789 0.69012779596929408 0
          -1.5622140867366261 0.68734581567714126 0
          -1.5548450705145702 0.68457132251857888 0
          -1.5474752864739969 0.68179886954677738 0
        </DataArray>
      </Points>
      <Cells>
        <DataArray type="Int32" Name="connectivity" format="ascii">
          0 1 1 2 2 3 3 4 4 5 5 6 6 7 7 8 8 9 9 10 10 11 11 12 12 13 13 14 14 15 15 16 16 17 17 18 18 19 19 20 20 21 21 22 22 23 23 24 24 25 25 26 26 27 27 28 28 29 29 30 30 31 31 32 32 33 33 34 34 35 35 36 36 37 37 38 38 39 39 40 40 41 41 42 42 43 43 44 44 45 45 46 46 47 47 48 48 49 49 50 50 51 51 52 52 53 53 54 54 55 55 56 56 57 57 58 58 59 59 60 60 61 61 62 62 63 63 64 64 65 65 66 66 67 67 68 68 69 69 70 70 71 71 72 72 73 73 74 74 75 75 76 76 77 77 78 78 79 79 80 80 81 81 82 82 83 83 84 84 85 85 86 86 87 87 88 88 89 89 90 90 91 91 92 92 93 93 94 94 95 95 96 96 97 97 98 98 99 99 100 100 101 101 102 102 103 103 104 104 105 105 106 106 107 107 108 108 109 109 110 110 111 111 112 112 113 113 114 114 115 115 116 116 117 117 118 118 119 119 120 120 121 121 122 122 123 123 124 124 125 125 126 126 127 
        </DataArray>
        <DataArray type="Int32" Name="offsets" format="ascii">
          2 4 6 8 10 12 14 16 18 20 22 24 26 28 30 32 34 36 38 40 42 44 46 48 50 52 54 56 58 60 62 64 66 68 70 72 74 76 78 80 82 84 86 88 90 92 94 96 98 100 102 104 106 108 110 112 114 116 118 120 122 124 126 128 130 132 134 136 138 140 142 144 146 148 150 152 154 156 158 160 162 164 166 168 170 172 174 176 178 180 182 184 186 188 190 192 194 196 198 200 202 204 206 208 210 212 214 216 218 220 222 224 226 228 230 232 234 236 238 240 242 244 246 248 250 252 254 
        </DataArray>
        <DataArray type="Int32" Name="types" format="ascii">
          3 3 3 3 3 3 3 3 3 3 3 3 3 3 3 3 3 3 3 3 3 3 3 3 3 3 3 3 3 3 3 3 3 3 3 3 3 3 3 3 3 3 3 3 3 3 3 3 3 3 3 3 3 3 3 3 3 3 3 3 3 3 3 3 3 3 3 3 3 3 3 3 3 3 3 3 3 3 3 3 3 3 3 3 3 3 3 3 3 3 3 3 3 3 3 3 3 3 3 3 3 3 3 3 3 3 3 3 3 3 3 3 3 3 3 3 3 3 3 3 3 3 3 3 3 3 3         </DataArray>
      </Cells>
    </Piece>
  </UnstructuredGrid>
</VTKFile>
<!-- DATA


-->
