<?xml version="1.0"?>
<VTKFile type="UnstructuredGrid" version="0.1" byte_order="LittleEndian">
  <UnstructuredGrid>
    <Piece NumberOfPoints="128" NumberOfCells="127">
      <PointData Scalars="u">
        <DataArray type="Float32" Name="Y" NumberOfComponents="2">

0 0
0.12364522680081765 -0.0094064292511391711
0.12953899023517376 -0.042296140132973045
0.13747527000467322 -0.068143284197016457
0.14590418348444067 -0.089016543913728985
0.15353088636981488 -0.10713746741704594
0.1626045257652862 -0.12171809026409793
0.17108533153103828 -0.13302138315592979
0.178530211830327 -0.14101676212545003
0.18479136016276554 -0.14602407742333454
0.18874038513642374 -0.14998375321881102
0.19260317236411428 -0.15144048683417671
0.1948147252515196 -0.15111613724580877
0.19484845194549985 -0.15054244039426704
0.19458158864673303 -0.14847735213039664
0.19239841301910571 -0.14661688152361441
0.18976013455449003 -0.14326349514539619
0.18503532550622614 -0.14015233260863419
0.17971631597032209 -0.13557972065982604
0.17262194868284883 -0.13121575820138157
0.16527170282121498 -0.12585936028597247
0.15745229653882667 -0.1211500268725085
0.15105985621965387 -0.11695434112143907
0.14728926929339059 -0.11496404500808792
0.14831180920363529 -0.11614731618150702
0.15401453133918916 -0.12048912270894126
0.16486043238146808 -0.12776062052529061
0.18041012912737286 -0.13896728165353339
0.20159991168134841 -0.15325850672858546
0.22646047991600091 -0.17230031989040751
0.2557151568569786 -0.19362289834706312
0.28480819770312377 -0.21884451504371283
0.31197475822550524 -0.24464996379638446
0.33905558072333009 -0.26755415914445785
0.35831361413465151 -0.29041202115338305
0.37019586087390222 -0.30619873334511238
0.37371636297383848 -0.31268396928953668
0.37693815594954089 -0.30513531297555058
0.37001225231817825 -0.28918825146273652
0.36068396963803573 -0.25879458212191431
0.35318137939388949 -0.2168776020223846
0.31400157685753438 -0.18565639065050629
0.28043712165919454 -0.15080922487519915
0.25400762536203164 -0.11494956530417114
0.23311782541932313 -0.081586190054135033
0.21801684548050473 -0.053403470185528858
0.20748471407407906 -0.032760015419588978
0.19988693756031981 -0.021039168090897738
0.19346148404019126 -0.018383773071291548
0.1855850634732914 -0.023436688277054196
0.1771778192824596 -0.034963608073483469
0.16645989977904641 -0.050872428356710013
0.15352607912438934 -0.068810026452737941
0.13875389632148194 -0.086180508482249854
0.12334082732398013 -0.10083339141035735
0.10833575318599045 -0.11115511595554517
0.095958453333821331 -0.11744104500361097
0.085967056162070246 -0.1190548263198644
0.079245159120537187 -0.11589246795436733
0.077772121357259388 -0.1091781440476932
0.080849584289163404 -0.097045809538088612
0.09192570998996985 -0.081207335556574792
0.11095939639967677 -0.059348963934875071
0.14177352188135797 -0.0339213196565561
0.184429703328964 -0.003045975220833017
0.24190010671354589 0.030225439704320071
0.31440703112226531 0.065699237204780922
0.40311533809094469 0.10234284752118407
0.50933282013358383 0.13922210143260469
0.63441406778751619 0.17545131566934286
0.77965372481303263 0.21017893942215546
0.94613141216534669 0.24272037298531601
1.1346186671151428 0.27216422497472348
1.3452933511063858 0.29799466159788773
1.5778546746039281 0.31989267354167839
1.8314304074388743 0.33789050951926042
2.1045427742220455 0.3524459739239163
2.3953853117274733 0.36289924054277239
2.7026668956441782 0.37207894911942946
3.0262625980314186 0.38227518337653477
3.3655883683313847 0.39620436024498834
3.7196182959031168 0.41703017436795836
4.0868834128857383 0.44838673389389927
4.465438125079678 0.49433589524738397
4.852796546694174 0.55928244453312836
5.2458607261593819 0.64787208980708277
5.640839814906168 0.76484440359104622
6.0331686215342915 0.91484274562795009
6.4174409158584771 1.1021821307764279
6.7873723156657304 1.330584053166435
7.1358122341337031 1.6028738012927608
7.4548256751542779 1.920660314208875
7.7358219452110477 2.2841688396496158
7.969617282912524 2.6918965963715062
8.1472148755783671 3.1394807909157749
8.2601045183995776 3.620771764397237
8.3009635371804826 4.1274924717762778
8.2643512432144135 4.6494370914374397
8.1472644841031148 5.1751202691184437
7.9497046598779511 5.692375348618441
7.6752738507639293 6.1893068031855192
7.3299231717062039 6.6565450709787521
6.9225102638381468 7.0866326740423222
6.4636041733751419 7.4753122733021389
5.9630560163615947 7.822891958256216
5.423010645437123 8.1332786088639377
4.8585098880606035 8.4012174425698625
4.2764738992932312 8.6284154647040641
3.6807645119975132 8.8171746906765378
3.0741354141535 8.9675650944774574
2.4580423129918469 9.0761558507619107
1.8351144492028919 9.1339043813791516
1.2188777687076122 9.1285260888665167
0.60769296543407336 9.045922405939459
0.02450280994185661 8.8678772402540336
-0.51278815459559135 8.5785680492582959
-0.98071186701680513 8.1649646701548146
-1.3476757011729386 7.6241970720220742
-1.6019757099925651 6.9591980293585403
-1.7277650783674712 6.1826636987014574
-1.7205115582379811 5.3175063673339782
-1.5965918521668758 4.3899097777528704
-1.3691165115768187 3.4373482356455995
-1.0622194543420516 2.5018381284885503
-0.74828714462323642 1.5909802879048156
-0.38454057345222642 0.81249706268749555
-0.078537788715183243 0.26254440495914005
0 0

        </DataArray>
        <DataArray type="Float32" Name="W" NumberOfComponents="2">

-26.848119378958156 8.6280693006509139
-26.840491210653003 8.6300274140460154
-26.832965559311152 8.6323483040316837
-26.825554575880727 8.6350125230376289
-26.818269906204417 8.638004697919186
-26.811121623471621 8.6413092956414328
-26.804115949704627 8.64490618583093
-26.797259643763034 8.6487800639323744
-26.790557862912671 8.6529153729580894
-26.784014358255817 8.6572966953315458
-26.777631825514025 8.6619092344673945
-26.771407658163287 8.6667332136514688
-26.765341567859707 8.6717544081818421
-26.759431800026093 8.6769585723300739
-26.753671102279718 8.6823271742725243
-26.748054952460897 8.6878467096322769
-26.742572822493244 8.6934992821881316
-26.73721814685749 8.6992726481452554
-26.731976897960504 8.7051490973759158
-26.72684023412614 8.7111171091447748
-26.721791264425406 8.7171594279094045
-26.716819103963953 8.7232650559568139
-26.711904652951773 8.7294171896599444
-26.707034511320476 8.7356044326301543
-26.702186845120334 8.7418092902107567
-26.697337578597249 8.7480129048347823
-26.692470760596638 8.7542027876782065
-26.687560592678437 8.7603583910091327
-26.682588921383175 8.7664645050548415
-26.67752818480772 8.7724971153922819
-26.672359538057041 8.778437670700205
-26.66705478614308 8.7842571898759125
-26.661595948991632 8.7899326464314917
-26.655966964907684 8.7954396607218914
-26.650141880656186 8.8007391478371382
-26.644108868170942 8.805801060723045
-26.637858182399331 8.8105920681304486
-26.631384565705897 8.8150778671251828
-26.624676318132284 8.8192052965253502
-26.617738290999885 8.8229345120346885
-26.610580867965361 8.8262242641520743
-26.603213143099733 8.8290111920885721
-26.59567284293821 8.8312900378292785
-26.587996946551929 8.8330588115070068
-26.580221026514522 8.8343163944956551
-26.572379922031541 8.8350660030422361
-26.564507047315058 8.8353130277821545
-26.556634315311683 8.8350647629072991
-26.548792101483951 8.8343301480503893
-26.541009233069332 8.8331195874249211
-26.533312396865579 8.8314475194595659
-26.525726898126244 8.8293271413859102
-26.518276286585667 8.8267731326247318
-26.510982387006599 8.8238011885159473
-26.503865015866804 8.820428451612397
-26.496942023080578 8.8166729970936881
-26.490228917761772 8.8125542052506685
-26.483740997223606 8.8080892188560398
-26.477491760158372 8.8032959682988547
-26.471492627272131 8.7981932617746264
-26.465755864588395 8.7927973592781257
-26.460289450016361 8.7871278358538198
-26.455102519513208 8.7812016316563231
-26.450198809075243 8.7750391094618134
-26.445583701100187 8.7686576743721929
-26.441256818625124 8.7620774888656854
-26.437219178841648 8.7553160547704501
-26.433469831115069 8.7483906924774359
-26.430005821898551 8.7413183824621665
-26.42682215787179 8.7341156160184621
-26.423911771663416 8.7267982527454322
-26.421265494586734 8.7193813847711201
-26.418871641327637 8.711879337293075
-26.416716833313295 8.7043052642724241
-26.414785657140019 8.6966712038221434
-26.413060749903078 8.6889880021387338
-26.411522919205321 8.6812652695007184
-26.410151298552144 8.673511374093394
-26.408929241503316 8.6657325788884698
-26.407833149964119 8.6579351018789126
-26.406838103619044 8.6501241408727747
-26.405917936296419 8.6423040450783741
-26.4050453714623 8.6344785189464055
-26.40419205180358 8.6266508773361466
-26.403328710054733 8.6188243217736833
-26.402425322238162 8.6110022534886674
-26.401451288595108 8.6031886118457663
-26.400375644724118 8.5953882299841755
-26.399167322795723 8.5876071947196237
-26.397795448045091 8.579853199466978
-26.39622968985298 8.5721358720643863
-26.394440665236981 8.5644670593932108
-26.39240039318517 8.5568610485646737
-26.3900822176319 8.549334880979286
-26.387462502535584 8.5419080776490848
-26.38452061043639 8.5346026786748173
-26.381239389734898 8.5274430372116417
-26.377605749910355 8.5204554207547485
-26.373610997527674 8.5136675484435393
-26.369251088808067 8.5071080200630949
-26.364527264954493 8.5008052883998708
-26.359444823020652 8.4947878005915509
-26.354013414407515 8.4890831282005816
-26.34824661566876 8.4837175647742846
-26.342161356167171 8.4787159425510179
-26.335772117126762 8.4741088534323641
-26.329101939750831 8.4699187446612125
-26.322176344392417 8.466165796197604
-26.315022229423814 8.4628692926412086
-26.307668135197325 8.4600470612584004
-26.300144169166479 8.4577154043714344
-26.292481824354333 8.4558895395702312
-26.284716114173868 8.4545714904039588
-26.276880314918682 8.4537704580021593
-26.269009150825273 8.4534810431606751
-26.261135662701388 8.4536920452848268
-26.25329019232213 8.4543864231654435
-26.24549749473519 8.4555286089641726
-26.237777288062627 8.457086305385678
-26.230142635130534 8.4590195998333115
-26.222598777616909 8.4612809471306907
-26.215149367886102 8.4638359998409527
-26.20779242447686 8.4666460891948319
-26.200529293383909 8.4696904714949639
-26.193385453387997 8.4730053352841832
-26.186294702186512 8.4764325455577278
-26.179245496018023 8.4799448045881878
-26.17226811722221 8.4835982395615925

        </DataArray>
        <DataArray type="Float32" Name="u" NumberOfComponents="1">
          0 0.007874015748031496 0.015748031496062992 0.023622047244094488 0.031496062992125984 0.03937007874015748 0.047244094488188976 0.055118110236220472 0.062992125984251968 0.070866141732283464 0.07874015748031496 0.086614173228346455 0.094488188976377951 0.10236220472440945 0.11023622047244094 0.11811023622047244 0.12598425196850394 0.13385826771653545 0.14173228346456693 0.14960629921259844 0.15748031496062992 0.16535433070866143 0.17322834645669291 0.18110236220472442 0.1889763779527559 0.19685039370078741 0.20472440944881889 0.2125984251968504 0.22047244094488189 0.2283464566929134 0.23622047244094488 0.24409448818897639 0.25196850393700787 0.25984251968503935 0.26771653543307089 0.27559055118110237 0.28346456692913385 0.29133858267716534 0.29921259842519687 0.30708661417322836 0.31496062992125984 0.32283464566929132 0.33070866141732286 0.33858267716535434 0.34645669291338582 0.3543307086614173 0.36220472440944884 0.37007874015748032 0.37795275590551181 0.38582677165354329 0.39370078740157483 0.40157480314960631 0.40944881889763779 0.41732283464566927 0.42519685039370081 0.43307086614173229 0.44094488188976377 0.44881889763779526 0.45669291338582679 0.46456692913385828 0.47244094488188976 0.48031496062992124 0.48818897637795278 0.49606299212598426 0.50393700787401574 0.51181102362204722 0.51968503937007871 0.52755905511811019 0.53543307086614178 0.54330708661417326 0.55118110236220474 0.55905511811023623 0.56692913385826771 0.57480314960629919 0.58267716535433067 0.59055118110236215 0.59842519685039375 0.60629921259842523 0.61417322834645671 0.62204724409448819 0.62992125984251968 0.63779527559055116 0.64566929133858264 0.65354330708661412 0.66141732283464572 0.6692913385826772 0.67716535433070868 0.68503937007874016 0.69291338582677164 0.70078740157480313 0.70866141732283461 0.71653543307086609 0.72440944881889768 0.73228346456692917 0.74015748031496065 0.74803149606299213 0.75590551181102361 0.76377952755905509 0.77165354330708658 0.77952755905511806 0.78740157480314965 0.79527559055118113 0.80314960629921262 0.8110236220472441 0.81889763779527558 0.82677165354330706 0.83464566929133854 0.84251968503937003 0.85039370078740162 0.8582677165354331 0.86614173228346458 0.87401574803149606 0.88188976377952755 0.88976377952755903 0.89763779527559051 0.90551181102362199 0.91338582677165359 0.92125984251968507 0.92913385826771655 0.93700787401574803 0.94488188976377951 0.952755905511811 0.96062992125984248 0.96850393700787396 0.97637795275590555 0.98425196850393704 0.99212598425196852 1
        </DataArray>
      </PointData>
      <CellData Scalars="P">
        <DataArray type="Float32" Name="P" NumberOfComponents="1">
          0.025450490134074025 0.135941487358336 0.27664499598091796 0.43683465350532463 0.60633756709187692 0.77374321468030416 0.9445315696217409 1.1196014151312326 1.2980675004504281 1.4770809046336044 1.6469595677475357 1.8142608046941655 1.9772884954308194 2.127742251784257 2.2705923354481898 2.4001605272854003 2.5229019902043586 2.6323912988341611 2.7348881107237744 2.824145186247295 2.9054159118153589 2.9738507270515431 3.0339381455095062 3.0861589843013553 3.1385579390881366 3.1974813848391133 3.2752864104429125 3.3762843425852407 3.5199148583747966 3.704569373803865 3.952290500767135 4.2453621466403124 4.5778928571784441 4.9728802131367233 5.3824201991992862 5.78514218987989 6.1661172613296422 6.5493771386539397 6.8853771393424896 7.1751883291896226 7.4714756940507643 7.7504506792772645 8.0240632285632465 8.3147640598389074 8.6382689773246621 9.0096273491140391 9.4385478408268479 9.9273264176203568 10.4700146511281 11.049596844282306 11.658480866837847 12.280775237073994 12.899067641822977 13.494924278766668 14.053924508684862 14.566318882203298 15.035374680693794 15.458032701741532 15.831167266994662 16.157651685277433 16.425182676100317 16.63163900369452 16.763469039194167 16.819357190059669 16.792371566445095 16.685293320150198 16.498967343439229 16.233706531958568 15.890337010160289 15.471164504968016 14.980860295458225 14.428242482341851 13.824811028339148 13.186573717286445 12.533063062339982 11.886769771648568 11.272156864723819 10.687884225988537 10.177161523486777 9.7616603561358417 9.4644715509051256 9.3087985646458247 9.3175979731678726 9.5118313512762889 9.9095863881321833 10.524964369966435 11.366999505108886 12.438514094251186 13.735198707429669 15.244722041815708 16.946086166354888 18.809304606535012 20.799442128500722 22.863692313096383 24.946241806490249 26.987063448094567 28.924418200345762 30.700285114032773 32.265009029930567 33.580457270799343 34.63327670378402 35.428598231740487 35.993374284621488 36.37493512218677 36.639170225023236 36.814520634449686 36.939653410067379 37.051024718863395 37.169120992565638 37.287895835198675 37.363418263454044 37.303907114385353 37.008300989804248 36.330696479853799 35.129742177490066 33.284757738556458 30.790601949423749 27.655549222933001 24.027881104994108 20.17107382385748 16.161542492823212 12.291396874175794 8.5099444004542715 4.0653318520818011 2.2526902307925076 1.0905377554856834 -0.026640351936441851
        </DataArray>
      </CellData>
      <Points>
        <DataArray type="Float32" NumberOfComponents="3" format="ascii">
          -26.848119378958156 8.6280693006509139 0
          -26.840491210653003 8.6300274140460154 0
          -26.832965559311152 8.6323483040316837 0
          -26.825554575880727 8.6350125230376289 0
          -26.818269906204417 8.638004697919186 0
          -26.811121623471621 8.6413092956414328 0
          -26.804115949704627 8.64490618583093 0
          -26.797259643763034 8.6487800639323744 0
          -26.790557862912671 8.6529153729580894 0
          -26.784014358255817 8.6572966953315458 0
          -26.777631825514025 8.6619092344673945 0
          -26.771407658163287 8.6667332136514688 0
          -26.765341567859707 8.6717544081818421 0
          -26.759431800026093 8.6769585723300739 0
          -26.753671102279718 8.6823271742725243 0
          -26.748054952460897 8.6878467096322769 0
          -26.742572822493244 8.6934992821881316 0
          -26.73721814685749 8.6992726481452554 0
          -26.731976897960504 8.7051490973759158 0
          -26.72684023412614 8.7111171091447748 0
          -26.721791264425406 8.7171594279094045 0
          -26.716819103963953 8.7232650559568139 0
          -26.711904652951773 8.7294171896599444 0
          -26.707034511320476 8.7356044326301543 0
          -26.702186845120334 8.7418092902107567 0
          -26.697337578597249 8.7480129048347823 0
          -26.692470760596638 8.7542027876782065 0
          -26.687560592678437 8.7603583910091327 0
          -26.682588921383175 8.7664645050548415 0
          -26.67752818480772 8.7724971153922819 0
          -26.672359538057041 8.778437670700205 0
          -26.66705478614308 8.7842571898759125 0
          -26.661595948991632 8.7899326464314917 0
          -26.655966964907684 8.7954396607218914 0
          -26.650141880656186 8.8007391478371382 0
          -26.644108868170942 8.805801060723045 0
          -26.637858182399331 8.8105920681304486 0
          -26.631384565705897 8.8150778671251828 0
          -26.624676318132284 8.8192052965253502 0
          -26.617738290999885 8.8229345120346885 0
          -26.610580867965361 8.8262242641520743 0
          -26.603213143099733 8.8290111920885721 0
          -26.59567284293821 8.8312900378292785 0
          -26.587996946551929 8.8330588115070068 0
          -26.580221026514522 8.8343163944956551 0
          -26.572379922031541 8.8350660030422361 0
          -26.564507047315058 8.8353130277821545 0
          -26.556634315311683 8.8350647629072991 0
          -26.548792101483951 8.8343301480503893 0
          -26.541009233069332 8.8331195874249211 0
          -26.533312396865579 8.8314475194595659 0
          -26.525726898126244 8.8293271413859102 0
          -26.518276286585667 8.8267731326247318 0
          -26.510982387006599 8.8238011885159473 0
          -26.503865015866804 8.820428451612397 0
          -26.496942023080578 8.8166729970936881 0
          -26.490228917761772 8.8125542052506685 0
          -26.483740997223606 8.8080892188560398 0
          -26.477491760158372 8.8032959682988547 0
          -26.471492627272131 8.7981932617746264 0
          -26.465755864588395 8.7927973592781257 0
          -26.460289450016361 8.7871278358538198 0
          -26.455102519513208 8.7812016316563231 0
          -26.450198809075243 8.7750391094618134 0
          -26.445583701100187 8.7686576743721929 0
          -26.441256818625124 8.7620774888656854 0
          -26.437219178841648 8.7553160547704501 0
          -26.433469831115069 8.7483906924774359 0
          -26.430005821898551 8.7413183824621665 0
          -26.42682215787179 8.7341156160184621 0
          -26.423911771663416 8.7267982527454322 0
          -26.421265494586734 8.7193813847711201 0
          -26.418871641327637 8.711879337293075 0
          -26.416716833313295 8.7043052642724241 0
          -26.414785657140019 8.6966712038221434 0
          -26.413060749903078 8.6889880021387338 0
          -26.411522919205321 8.6812652695007184 0
          -26.410151298552144 8.673511374093394 0
          -26.408929241503316 8.6657325788884698 0
          -26.407833149964119 8.6579351018789126 0
          -26.406838103619044 8.6501241408727747 0
          -26.405917936296419 8.6423040450783741 0
          -26.4050453714623 8.6344785189464055 0
          -26.40419205180358 8.6266508773361466 0
          -26.403328710054733 8.6188243217736833 0
          -26.402425322238162 8.6110022534886674 0
          -26.401451288595108 8.6031886118457663 0
          -26.400375644724118 8.5953882299841755 0
          -26.399167322795723 8.5876071947196237 0
          -26.397795448045091 8.579853199466978 0
          -26.39622968985298 8.5721358720643863 0
          -26.394440665236981 8.5644670593932108 0
          -26.39240039318517 8.5568610485646737 0
          -26.3900822176319 8.549334880979286 0
          -26.387462502535584 8.5419080776490848 0
          -26.38452061043639 8.5346026786748173 0
          -26.381239389734898 8.5274430372116417 0
          -26.377605749910355 8.5204554207547485 0
          -26.373610997527674 8.5136675484435393 0
          -26.369251088808067 8.5071080200630949 0
          -26.364527264954493 8.5008052883998708 0
          -26.359444823020652 8.4947878005915509 0
          -26.354013414407515 8.4890831282005816 0
          -26.34824661566876 8.4837175647742846 0
          -26.342161356167171 8.4787159425510179 0
          -26.335772117126762 8.4741088534323641 0
          -26.329101939750831 8.4699187446612125 0
          -26.322176344392417 8.466165796197604 0
          -26.315022229423814 8.4628692926412086 0
          -26.307668135197325 8.4600470612584004 0
          -26.300144169166479 8.4577154043714344 0
          -26.292481824354333 8.4558895395702312 0
          -26.284716114173868 8.4545714904039588 0
          -26.276880314918682 8.4537704580021593 0
          -26.269009150825273 8.4534810431606751 0
          -26.261135662701388 8.4536920452848268 0
          -26.25329019232213 8.4543864231654435 0
          -26.24549749473519 8.4555286089641726 0
          -26.237777288062627 8.457086305385678 0
          -26.230142635130534 8.4590195998333115 0
          -26.222598777616909 8.4612809471306907 0
          -26.215149367886102 8.4638359998409527 0
          -26.20779242447686 8.4666460891948319 0
          -26.200529293383909 8.4696904714949639 0
          -26.193385453387997 8.4730053352841832 0
          -26.186294702186512 8.4764325455577278 0
          -26.179245496018023 8.4799448045881878 0
          -26.17226811722221 8.4835982395615925 0
        </DataArray>
      </Points>
      <Cells>
        <DataArray type="Int32" Name="connectivity" format="ascii">
          0 1 1 2 2 3 3 4 4 5 5 6 6 7 7 8 8 9 9 10 10 11 11 12 12 13 13 14 14 15 15 16 16 17 17 18 18 19 19 20 20 21 21 22 22 23 23 24 24 25 25 26 26 27 27 28 28 29 29 30 30 31 31 32 32 33 33 34 34 35 35 36 36 37 37 38 38 39 39 40 40 41 41 42 42 43 43 44 44 45 45 46 46 47 47 48 48 49 49 50 50 51 51 52 52 53 53 54 54 55 55 56 56 57 57 58 58 59 59 60 60 61 61 62 62 63 63 64 64 65 65 66 66 67 67 68 68 69 69 70 70 71 71 72 72 73 73 74 74 75 75 76 76 77 77 78 78 79 79 80 80 81 81 82 82 83 83 84 84 85 85 86 86 87 87 88 88 89 89 90 90 91 91 92 92 93 93 94 94 95 95 96 96 97 97 98 98 99 99 100 100 101 101 102 102 103 103 104 104 105 105 106 106 107 107 108 108 109 109 110 110 111 111 112 112 113 113 114 114 115 115 116 116 117 117 118 118 119 119 120 120 121 121 122 122 123 123 124 124 125 125 126 126 127 
        </DataArray>
        <DataArray type="Int32" Name="offsets" format="ascii">
          2 4 6 8 10 12 14 16 18 20 22 24 26 28 30 32 34 36 38 40 42 44 46 48 50 52 54 56 58 60 62 64 66 68 70 72 74 76 78 80 82 84 86 88 90 92 94 96 98 100 102 104 106 108 110 112 114 116 118 120 122 124 126 128 130 132 134 136 138 140 142 144 146 148 150 152 154 156 158 160 162 164 166 168 170 172 174 176 178 180 182 184 186 188 190 192 194 196 198 200 202 204 206 208 210 212 214 216 218 220 222 224 226 228 230 232 234 236 238 240 242 244 246 248 250 252 254 
        </DataArray>
        <DataArray type="Int32" Name="types" format="ascii">
          3 3 3 3 3 3 3 3 3 3 3 3 3 3 3 3 3 3 3 3 3 3 3 3 3 3 3 3 3 3 3 3 3 3 3 3 3 3 3 3 3 3 3 3 3 3 3 3 3 3 3 3 3 3 3 3 3 3 3 3 3 3 3 3 3 3 3 3 3 3 3 3 3 3 3 3 3 3 3 3 3 3 3 3 3 3 3 3 3 3 3 3 3 3 3 3 3 3 3 3 3 3 3 3 3 3 3 3 3 3 3 3 3 3 3 3 3 3 3 3 3 3 3 3 3 3 3         </DataArray>
      </Cells>
    </Piece>
  </UnstructuredGrid>
</VTKFile>
<!-- DATA


-->
