<?xml version="1.0"?>
<VTKFile type="UnstructuredGrid" version="0.1" byte_order="LittleEndian">
  <UnstructuredGrid>
    <Piece NumberOfPoints="128" NumberOfCells="127">
      <PointData Scalars="u">
        <DataArray type="Float32" Name="Y" NumberOfComponents="2">

0 0
0.036835281468386827 -0.00563257334960943
0.032004187358902793 0.0068908549682288557
0.024861008789335667 0.030107344526130293
0.014515612779259264 0.05995555786408123
0.0011124266542913628 0.092945710057936767
-0.014483774192164265 0.12625899176422384
-0.030982582317439847 0.1577557156936103
-0.046923099125703284 0.18591388604526587
-0.060878780664552323 0.20972308127064193
-0.071609699261869275 0.22855813598151239
-0.078166255703046458 0.24205401879252125
-0.079952028213522916 0.24999863521755222
-0.076754459638273168 0.25225503681003003
-0.068750920880405186 0.24871940275269908
-0.056495081531331121 0.23931653666160299
-0.040885300087292235 0.22403055031739286
-0.023113729122061926 0.20296477517813752
-0.0045927597464357935 0.176421612432238
0.013145116888067368 0.14498999353315056
0.02857657569391998 0.10962558426776153
0.040344992552757392 0.071707296827531283
0.047440211564754774 0.033053742703597309
0.049388263022931964 -0.0041143212477866373
0.046432582408248255 -0.037274210229860501
0.039683676804142337 -0.063764631841809638
0.031212707832714143 -0.081002049758465131
0.024067356390519819 -0.086728685410635567
0.022196090285774336 -0.079260649027281527
0.030278929669630278 -0.057698174098809708
0.053477123130345833 -0.022059002754669595
0.097127913975818755 0.026698350957456762
0.16642050235577191 0.086782867451603643
0.2660925057982988 0.15581611258340539
0.40018103025924651 0.2312021129355519
0.57184896118967998 0.31059469046454591
0.78328712889800267 0.39242418854957961
1.035669817921735 0.47644013673998759
1.3291185818320237 0.56422505525401512
1.6626114648544579 0.65963398790328898
2.03376534619149 0.76910994728609339
2.4384222151486039 0.90181286303627495
2.8699906704113274 1.0694764269756256
3.3185382174639209 1.2858753996386973
3.7697053439624377 1.5657547188403345
4.2036240786045331 1.9230604889659988
4.5941679618866669 2.3683523045693389
4.9090133697734393 2.9054045515377469
5.1110985164449563 3.5272533944728361
5.1620349444707729 4.2123150164062588
5.0277478707722825 4.9216183007683041
4.7887068892848061 5.5048067896196535
4.5583278532823606 5.8994060959155092
4.2348498712824343 6.2044169712459674
3.8414386175163249 6.4096912736895231
3.4017966887097493 6.5092249206349777
2.9389879427569046 6.5014408941951984
2.4742988551730334 6.3890251008043855
2.0262706096042016 6.1783961842388617
1.6099949040211039 5.8789222695887844
1.2367178537427459 5.5020100620804335
0.91374997999996099 5.0601847743542683
0.64464372056083219 4.5662573516479945
0.42957716807057406 4.0326449798343065
0.26587414251565306 3.4708786034649588
0.14859382696703538 2.8913024477366052
0.07113417051683249 2.302948511446048
0.025808019757717324 1.7135547583788062
0.0043660412787914641 1.1296887652710732
-0.0015464467179501749 0.55693744015368618
-1.8651615629559983e-06 0.0001263493410085439
0.0015309811832544123 -0.53646244132179377
-0.0035522437222277482 -1.0488985589526167
-0.020785117196195472 -1.5334552147346292
-0.054474302340891512 -1.9865157184071158
-0.10759139674321273 -2.4045391782152143
-0.18171292338314912 -2.7840840802969815
-0.27701018051874093 -3.1218831745077833
-0.39229111092067553 -3.4149585889974001
-0.52509545308348926 -3.6607625861550344
-0.67184224529570535 -3.8573271333766765
-0.82802555866305172 -4.0034047485634163
-0.98845062200911249 -4.0985840490768997
-1.1474988761500924 -4.1433660710353317
-1.2994075780640213 -4.1391915088854461
-1.4385478927659805 -4.0884141195006887
-1.5596852965146732 -3.9942210478388875
-1.6582076462749678 -3.8605061013269615
-1.7303092626088297 -3.6917064046430266
-1.7731234110948524 -3.492615925978332
-1.7848000981146075 -3.2681908136045279
-1.7645305267417031 -3.0233612940026049
-1.7125233600111331 -2.7628632576599732
-1.629940730728155 -2.4910999549008714
-1.5188035173588794 -2.2120408871189912
-1.381875774592138 -1.9291614473817187
-1.222537512275931 -1.6454235185460955
-1.0446535305820219 -1.3632943401978688
-0.8524440602370571 -1.0847986564901704
-0.65036085543454492 -0.81159748823663636
-0.44297043440269113 -0.54508578914331518
-0.23484459113061745 -0.28650065623322546
-0.030457271838292815 -0.037031566764150939
0.16591350044440231 0.20207576892243032
0.35027975022220209 0.42942996290322838
0.51903404521261232 0.64342627576487343
0.66903548768891341 0.84220710693979672
0.79768891060010683 1.0236557127242436
0.90301360221834093 1.1854264902203122
0.98369681288009747 1.3250130488260925
1.0391268219909406 1.4398528591445365
1.069400703108303 1.5274646775983165
1.0753032715482105 1.5856124230129005
1.0582560494981985 1.6124870045011048
1.0202382904280074 1.6068960379304742
0.96368584366272336 1.5684506453292191
0.89137742702910228 1.4977386903461027
0.80632111821061692 1.396474785002314
0.71165593133526461 1.2676189794211514
0.61058360909346721 1.1154578826286574
0.50634373204129257 0.94564372213779868
0.40224059829838077 0.76518831820414823
0.3017229680384389 0.58241015077929537
0.20850789535213896 0.40683397396388654
0.12672804389209963 0.249044406013951
0.061069077471975687 0.12049832690142778
0.016851351667035257 0.033306259147194164
0 0

        </DataArray>
        <DataArray type="Float32" Name="W" NumberOfComponents="2">

-2.4315618218954014 1.0542016882694516
-2.4237113920083218 1.0535915702585192
-2.4158380249906637 1.0534846807848846
-2.4079722323064061 1.0538458864360438
-2.4001378067523218 1.0546350418137045
-2.3923515830163171 1.0558078746232193
-2.384623475192456 1.0573168478633421
-2.3769567868343828 1.0591119488394267
-2.3693487760148688 1.0611413664117577
-2.3617914479336997 1.0633520332847568
-2.3542725410876999 1.0656900275333021
-2.3467766694672969 1.0681008451630156
-2.3392865817772357 1.0705295716402534
-2.3317844981495015 1.072920993572273
-2.3242534840942595 1.0752197009318849
-2.3166788196571786 1.077370234568986
-2.309049318523833 1.079317332689014
-2.3013585473271601 1.0810063232520759
-2.2936058904768428 1.0823836969293037
-2.2857974017753673 1.0833978778155795
-2.2779463825978374 1.0840001874988197
-2.2700736292524955 1.084145973846413
-2.262207300813754 1.0837958510873857
-2.2543823741349436 1.0829169750351082
-2.2466396748975037 1.0814842594818028
-2.2390245013125627 1.0794814297192006
-2.2315848881759566 1.0769018091306581
-2.2243695901120177 1.0737487462493267
-2.2174258901410506 1.0700356126436692
-2.2107973592483496 1.0657853349771833
-2.2045217011307128 1.0610294645582317
-2.1986288117465094 1.0558068303860149
-2.1931391654735273 1.0501618621997146
-2.1880626103528003 1.0441427035509814
-2.1833976176851309 1.0377992575515758
-2.1791309911292487 1.0311813173620024
-2.1752380030137295 1.0243369292579314
-2.1716828961524937 1.0173111196785498
-2.1684196723309466 1.0101450918752233
-2.1653930864606901 1.00287596612639
-2.1625397789068876 0.99553710315364186
-2.1597895064106911 0.98815901536365069
-2.1570664711836298 0.98077083501973727
-2.1542907930816164 0.97340227055312056
-2.1513802141822893 0.96608593848152491
-2.1482521591533312 0.95885990493108353
-2.1448262865082834 0.95177020540672408
-2.1410276411245905 0.94487303685566904
-2.1367904432442808 0.93823624315282317
-2.1320624144509148 0.93193966593267275
-2.1268093502719272 0.92607394010308774
-2.1210194272748293 0.92073741498222106
-2.1149325953384217 0.91574219665924517
-2.1085631394224582 0.91111275193405239
-2.1019311170657322 0.90686799274944108
-2.0950609219706582 0.90302064689674955
-2.0879798142731238 0.89957688570818228
-2.0807164904098263 0.89653622628602003
-2.0732997631994383 0.89389169808673707
-2.0657574121640949 0.89163024097585952
-2.0581152477607514 0.88973328617484948
-2.050396414082837 0.88817746360644345
-2.0426209356092047 0.88693537857832405
-2.0348054969867118 0.88597640616150475
-2.026963432044655 0.88526746112819577
-2.0191048897864445 0.88477371291317553
-2.0112371407924248 0.88445922697073687
-2.0033649866163796 0.88428752475008465
-1.9954912364514521 0.88422206342279153
-1.987617218642393 0.88422664303466969
-1.9797432987202983 0.88426575285048337
-1.9718693799288756 0.88430487049493089
-1.9639953663195238 0.88431072740024019
-1.9561215722436895 0.88425155245558185
-1.9482490654535711 0.88409730304316592
-1.9403799341300831 0.88381988925824639
-1.9325174711327624 0.88339339343985246
-1.9246662717506813 0.88279428354969669
-1.9168322443244439 0.88200161575496661
-1.9090225363345048 0.88099721907590556
-1.9012453818547248 0.87976585336886526
-1.8935098795163683 0.87829533136875992
-1.8858257131184504 0.87657659605581739
-1.8782028295252324 0.87460374618018122
-1.870651090285776 0.87237400521065622
-1.8631799143129553 0.86988763201752761
-1.8557979288656934 0.86714777493797934
-1.848512644981426 0.86416027416429886
-1.8413301715007699 0.86093342031294395
-1.834254979098729 0.85747767930349938
-1.8272897225368694 0.85380539511082676
-1.8204351259597802 0.84993048246154268
-1.8136899327515072 0.84586812113899235
-1.8070509184793009 0.84163446233993244
-1.800512962956017 0.83724635565887329
-1.7940691755469533 0.8327211029694559
-1.7877110665545373 0.8280762429453018
-1.7814287567920779 0.82332936742303553
-1.7752112172135412 0.81849796843718559
-1.7690465305785137 0.81359931269305208
-1.7629221674698727 0.80865033859281743
-1.7568252694250654 0.80366756975930542
-1.7507429323929125 0.79866703834748765
-1.7446624841225546 0.7936642113082425
-1.7385717494042026 0.78867391316481095
-1.7324592973262796 0.78371023975582255
-1.7263146649384755 0.77878645874868868
-1.7201285519893852 0.7739148944734876
-1.7138929818286188 0.76910679668773629
-1.7076014242123965 0.76437219514968169
-1.7012488766950833 0.75971974422071831
-1.6948319025563503 0.75515656398546915
-1.6883486247823731 0.7506880864102673
-1.6817986774062019 0.74631791670086567
-1.6751831173714302 0.74204772113321371
-1.6685043018156946 0.73787715312021129
-1.661765737044542 0.7338038290964376
-1.654971906246963 0.72982336496178857
-1.648128082990381 0.72592948238466126
-1.6412401365976039 0.72211419232355056
-1.6343143336348562 0.71836806079652582
-1.627357137054305 0.71468055932018082
-1.6203750013246332 0.71104049964428429
-1.613374158605543 0.70743654950008139
-1.6063603882885702 0.70385782313813194
-1.5993387607705518 0.70029453757808069
-1.5923133469413973 0.69673872293885042
-1.5852868883211533 0.69318497329475481

        </DataArray>
        <DataArray type="Float32" Name="u" NumberOfComponents="1">
          0 0.007874015748031496 0.015748031496062992 0.023622047244094488 0.031496062992125984 0.03937007874015748 0.047244094488188976 0.055118110236220472 0.062992125984251968 0.070866141732283464 0.07874015748031496 0.086614173228346455 0.094488188976377951 0.10236220472440945 0.11023622047244094 0.11811023622047244 0.12598425196850394 0.13385826771653545 0.14173228346456693 0.14960629921259844 0.15748031496062992 0.16535433070866143 0.17322834645669291 0.18110236220472442 0.1889763779527559 0.19685039370078741 0.20472440944881889 0.2125984251968504 0.22047244094488189 0.2283464566929134 0.23622047244094488 0.24409448818897639 0.25196850393700787 0.25984251968503935 0.26771653543307089 0.27559055118110237 0.28346456692913385 0.29133858267716534 0.29921259842519687 0.30708661417322836 0.31496062992125984 0.32283464566929132 0.33070866141732286 0.33858267716535434 0.34645669291338582 0.3543307086614173 0.36220472440944884 0.37007874015748032 0.37795275590551181 0.38582677165354329 0.39370078740157483 0.40157480314960631 0.40944881889763779 0.41732283464566927 0.42519685039370081 0.43307086614173229 0.44094488188976377 0.44881889763779526 0.45669291338582679 0.46456692913385828 0.47244094488188976 0.48031496062992124 0.48818897637795278 0.49606299212598426 0.50393700787401574 0.51181102362204722 0.51968503937007871 0.52755905511811019 0.53543307086614178 0.54330708661417326 0.55118110236220474 0.55905511811023623 0.56692913385826771 0.57480314960629919 0.58267716535433067 0.59055118110236215 0.59842519685039375 0.60629921259842523 0.61417322834645671 0.62204724409448819 0.62992125984251968 0.63779527559055116 0.64566929133858264 0.65354330708661412 0.66141732283464572 0.6692913385826772 0.67716535433070868 0.68503937007874016 0.69291338582677164 0.70078740157480313 0.70866141732283461 0.71653543307086609 0.72440944881889768 0.73228346456692917 0.74015748031496065 0.74803149606299213 0.75590551181102361 0.76377952755905509 0.77165354330708658 0.77952755905511806 0.78740157480314965 0.79527559055118113 0.80314960629921262 0.8110236220472441 0.81889763779527558 0.82677165354330706 0.83464566929133854 0.84251968503937003 0.85039370078740162 0.8582677165354331 0.86614173228346458 0.87401574803149606 0.88188976377952755 0.88976377952755903 0.89763779527559051 0.90551181102362199 0.91338582677165359 0.92125984251968507 0.92913385826771655 0.93700787401574803 0.94488188976377951 0.952755905511811 0.96062992125984248 0.96850393700787396 0.97637795275590555 0.98425196850393704 0.99212598425196852 1
        </DataArray>
      </PointData>
      <CellData Scalars="P">
        <DataArray type="Float32" Name="P" NumberOfComponents="1">
          0.0048910225235258911 0.15268246796246029 0.38356905146747117 0.65205552751642992 0.92252340905760211 1.169196909547489 1.3756560898918431 1.5339675091032379 1.6435284378303072 1.7097306976807072 1.7425455924253894 1.7551154451594184 1.7624144029969073 1.7800161611197041 1.8229833545017144 1.9048758416409453 2.0368650142740883 2.2269394192783274 2.4791930407368312 2.7932002349624989 3.1634983628641451 3.5792177587347394 4.0239154593969193 4.4756805592302236 4.9075818754476144 5.288520340102461 5.5845281351519471 5.7605249313313029 5.7825017070597902 5.6200594606280152 5.2491897981609759 4.6551528725331677 3.8352897678945963 2.8016022458369476 1.5829395738482681 0.22664221294098075 -1.2005059193605014 -2.6121840118172148 -3.9035186737804728 -4.9534544376422236 -5.6289410751408724 -5.7915009952102787 -5.3068374220585905 -4.0581316028414367 -1.9634503996988868 1.0028793806996157 4.7860866755765796 9.2266113770491458 14.040076646057058 18.807794403276272 22.984918047674867 24.644302345516138 25.55314103658208 25.724621706356562 25.205005852674251 24.068048872314304 22.40868147296937 20.336223951023872 17.967547196339364 15.420621310497603 12.808832519682275 10.236335497365005 7.7945746747069702 5.5599820567452856 3.5927587912207906 1.9365818356929483 0.61904586552395047 -0.34735128644161101 -0.96385212497532091 -1.2438529133839651 -1.2111922054237534 -0.89838565817511828 -0.3448501704742537 0.40485964193563956 1.3027909558994855 2.299299820003013 3.3447141181079938 4.3909330611843265 5.39293422556963 6.3101500558506558 7.1076694101380786 7.7572178675029075 8.2378741310983514 8.5364890655662951 8.6477879409717566 8.5741537925486817 8.3251084126265109 7.9165251596967092 7.3696224745179384 6.7097972065707587 5.9653617501956431 5.1662485185906535 4.3427401051612549 3.5242747868751421 2.7383663030724392 2.0096656247319258 1.3591820681608113 0.803672619187216 0.35520230759174642 0.02087504082295169 -0.19726680998193885 -0.30217522175877926 -0.30156154274561808 -0.20749247753283687 -0.035816075386476673 0.19458060025733295 0.46267470310982317 0.74635508101171588 1.02358471124169 1.273633464515131 1.4783198338645975 1.6231840450644612 1.6985016367514392 1.7000388054945801 1.6294511945847046 1.4942387370045418 1.3071924831308841 1.0853061716471359 0.84817588632325569 0.61597470294449341 0.40716372090787994 0.23618253770611086 0.11144495196842043 0.034040230803157594 -0.0024063583221969232 -0.010244681964315444 -0.0042556405322441791
        </DataArray>
      </CellData>
      <Points>
        <DataArray type="Float32" NumberOfComponents="3" format="ascii">
          -2.4315618218954014 1.0542016882694516 0
          -2.4237113920083218 1.0535915702585192 0
          -2.4158380249906637 1.0534846807848846 0
          -2.4079722323064061 1.0538458864360438 0
          -2.4001378067523218 1.0546350418137045 0
          -2.3923515830163171 1.0558078746232193 0
          -2.384623475192456 1.0573168478633421 0
          -2.3769567868343828 1.0591119488394267 0
          -2.3693487760148688 1.0611413664117577 0
          -2.3617914479336997 1.0633520332847568 0
          -2.3542725410876999 1.0656900275333021 0
          -2.3467766694672969 1.0681008451630156 0
          -2.3392865817772357 1.0705295716402534 0
          -2.3317844981495015 1.072920993572273 0
          -2.3242534840942595 1.0752197009318849 0
          -2.3166788196571786 1.077370234568986 0
          -2.309049318523833 1.079317332689014 0
          -2.3013585473271601 1.0810063232520759 0
          -2.2936058904768428 1.0823836969293037 0
          -2.2857974017753673 1.0833978778155795 0
          -2.2779463825978374 1.0840001874988197 0
          -2.2700736292524955 1.084145973846413 0
          -2.262207300813754 1.0837958510873857 0
          -2.2543823741349436 1.0829169750351082 0
          -2.2466396748975037 1.0814842594818028 0
          -2.2390245013125627 1.0794814297192006 0
          -2.2315848881759566 1.0769018091306581 0
          -2.2243695901120177 1.0737487462493267 0
          -2.2174258901410506 1.0700356126436692 0
          -2.2107973592483496 1.0657853349771833 0
          -2.2045217011307128 1.0610294645582317 0
          -2.1986288117465094 1.0558068303860149 0
          -2.1931391654735273 1.0501618621997146 0
          -2.1880626103528003 1.0441427035509814 0
          -2.1833976176851309 1.0377992575515758 0
          -2.1791309911292487 1.0311813173620024 0
          -2.1752380030137295 1.0243369292579314 0
          -2.1716828961524937 1.0173111196785498 0
          -2.1684196723309466 1.0101450918752233 0
          -2.1653930864606901 1.00287596612639 0
          -2.1625397789068876 0.99553710315364186 0
          -2.1597895064106911 0.98815901536365069 0
          -2.1570664711836298 0.98077083501973727 0
          -2.1542907930816164 0.97340227055312056 0
          -2.1513802141822893 0.96608593848152491 0
          -2.1482521591533312 0.95885990493108353 0
          -2.1448262865082834 0.95177020540672408 0
          -2.1410276411245905 0.94487303685566904 0
          -2.1367904432442808 0.93823624315282317 0
          -2.1320624144509148 0.93193966593267275 0
          -2.1268093502719272 0.92607394010308774 0
          -2.1210194272748293 0.92073741498222106 0
          -2.1149325953384217 0.91574219665924517 0
          -2.1085631394224582 0.91111275193405239 0
          -2.1019311170657322 0.90686799274944108 0
          -2.0950609219706582 0.90302064689674955 0
          -2.0879798142731238 0.89957688570818228 0
          -2.0807164904098263 0.89653622628602003 0
          -2.0732997631994383 0.89389169808673707 0
          -2.0657574121640949 0.89163024097585952 0
          -2.0581152477607514 0.88973328617484948 0
          -2.050396414082837 0.88817746360644345 0
          -2.0426209356092047 0.88693537857832405 0
          -2.0348054969867118 0.88597640616150475 0
          -2.026963432044655 0.88526746112819577 0
          -2.0191048897864445 0.88477371291317553 0
          -2.0112371407924248 0.88445922697073687 0
          -2.0033649866163796 0.88428752475008465 0
          -1.9954912364514521 0.88422206342279153 0
          -1.987617218642393 0.88422664303466969 0
          -1.9797432987202983 0.88426575285048337 0
          -1.9718693799288756 0.88430487049493089 0
          -1.9639953663195238 0.88431072740024019 0
          -1.9561215722436895 0.88425155245558185 0
          -1.9482490654535711 0.88409730304316592 0
          -1.9403799341300831 0.88381988925824639 0
          -1.9325174711327624 0.88339339343985246 0
          -1.9246662717506813 0.88279428354969669 0
          -1.9168322443244439 0.88200161575496661 0
          -1.9090225363345048 0.88099721907590556 0
          -1.9012453818547248 0.87976585336886526 0
          -1.8935098795163683 0.87829533136875992 0
          -1.8858257131184504 0.87657659605581739 0
          -1.8782028295252324 0.87460374618018122 0
          -1.870651090285776 0.87237400521065622 0
          -1.8631799143129553 0.86988763201752761 0
          -1.8557979288656934 0.86714777493797934 0
          -1.848512644981426 0.86416027416429886 0
          -1.8413301715007699 0.86093342031294395 0
          -1.834254979098729 0.85747767930349938 0
          -1.8272897225368694 0.85380539511082676 0
          -1.8204351259597802 0.84993048246154268 0
          -1.8136899327515072 0.84586812113899235 0
          -1.8070509184793009 0.84163446233993244 0
          -1.800512962956017 0.83724635565887329 0
          -1.7940691755469533 0.8327211029694559 0
          -1.7877110665545373 0.8280762429453018 0
          -1.7814287567920779 0.82332936742303553 0
          -1.7752112172135412 0.81849796843718559 0
          -1.7690465305785137 0.81359931269305208 0
          -1.7629221674698727 0.80865033859281743 0
          -1.7568252694250654 0.80366756975930542 0
          -1.7507429323929125 0.79866703834748765 0
          -1.7446624841225546 0.7936642113082425 0
          -1.7385717494042026 0.78867391316481095 0
          -1.7324592973262796 0.78371023975582255 0
          -1.7263146649384755 0.77878645874868868 0
          -1.7201285519893852 0.7739148944734876 0
          -1.7138929818286188 0.76910679668773629 0
          -1.7076014242123965 0.76437219514968169 0
          -1.7012488766950833 0.75971974422071831 0
          -1.6948319025563503 0.75515656398546915 0
          -1.6883486247823731 0.7506880864102673 0
          -1.6817986774062019 0.74631791670086567 0
          -1.6751831173714302 0.74204772113321371 0
          -1.6685043018156946 0.73787715312021129 0
          -1.661765737044542 0.7338038290964376 0
          -1.654971906246963 0.72982336496178857 0
          -1.648128082990381 0.72592948238466126 0
          -1.6412401365976039 0.72211419232355056 0
          -1.6343143336348562 0.71836806079652582 0
          -1.627357137054305 0.71468055932018082 0
          -1.6203750013246332 0.71104049964428429 0
          -1.613374158605543 0.70743654950008139 0
          -1.6063603882885702 0.70385782313813194 0
          -1.5993387607705518 0.70029453757808069 0
          -1.5923133469413973 0.69673872293885042 0
          -1.5852868883211533 0.69318497329475481 0
        </DataArray>
      </Points>
      <Cells>
        <DataArray type="Int32" Name="connectivity" format="ascii">
          0 1 1 2 2 3 3 4 4 5 5 6 6 7 7 8 8 9 9 10 10 11 11 12 12 13 13 14 14 15 15 16 16 17 17 18 18 19 19 20 20 21 21 22 22 23 23 24 24 25 25 26 26 27 27 28 28 29 29 30 30 31 31 32 32 33 33 34 34 35 35 36 36 37 37 38 38 39 39 40 40 41 41 42 42 43 43 44 44 45 45 46 46 47 47 48 48 49 49 50 50 51 51 52 52 53 53 54 54 55 55 56 56 57 57 58 58 59 59 60 60 61 61 62 62 63 63 64 64 65 65 66 66 67 67 68 68 69 69 70 70 71 71 72 72 73 73 74 74 75 75 76 76 77 77 78 78 79 79 80 80 81 81 82 82 83 83 84 84 85 85 86 86 87 87 88 88 89 89 90 90 91 91 92 92 93 93 94 94 95 95 96 96 97 97 98 98 99 99 100 100 101 101 102 102 103 103 104 104 105 105 106 106 107 107 108 108 109 109 110 110 111 111 112 112 113 113 114 114 115 115 116 116 117 117 118 118 119 119 120 120 121 121 122 122 123 123 124 124 125 125 126 126 127 
        </DataArray>
        <DataArray type="Int32" Name="offsets" format="ascii">
          2 4 6 8 10 12 14 16 18 20 22 24 26 28 30 32 34 36 38 40 42 44 46 48 50 52 54 56 58 60 62 64 66 68 70 72 74 76 78 80 82 84 86 88 90 92 94 96 98 100 102 104 106 108 110 112 114 116 118 120 122 124 126 128 130 132 134 136 138 140 142 144 146 148 150 152 154 156 158 160 162 164 166 168 170 172 174 176 178 180 182 184 186 188 190 192 194 196 198 200 202 204 206 208 210 212 214 216 218 220 222 224 226 228 230 232 234 236 238 240 242 244 246 248 250 252 254 
        </DataArray>
        <DataArray type="Int32" Name="types" format="ascii">
          3 3 3 3 3 3 3 3 3 3 3 3 3 3 3 3 3 3 3 3 3 3 3 3 3 3 3 3 3 3 3 3 3 3 3 3 3 3 3 3 3 3 3 3 3 3 3 3 3 3 3 3 3 3 3 3 3 3 3 3 3 3 3 3 3 3 3 3 3 3 3 3 3 3 3 3 3 3 3 3 3 3 3 3 3 3 3 3 3 3 3 3 3 3 3 3 3 3 3 3 3 3 3 3 3 3 3 3 3 3 3 3 3 3 3 3 3 3 3 3 3 3 3 3 3 3 3         </DataArray>
      </Cells>
    </Piece>
  </UnstructuredGrid>
</VTKFile>
<!-- DATA


-->
