<?xml version="1.0"?>
<VTKFile type="UnstructuredGrid" version="0.1" byte_order="LittleEndian">
  <UnstructuredGrid>
    <Piece NumberOfPoints="128" NumberOfCells="127">
      <PointData Scalars="u">
        <DataArray type="Float32" Name="Y" NumberOfComponents="2">

0 0
0.110738696038859 -0.051107430165460779
0.13848356717595908 -0.022315352594746086
0.16538114478731278 0.0010102387608171151
0.19092918750080939 0.019565066494770498
0.21452723305191881 0.033755117373754535
0.2354704245589064 0.043917263679706511
0.25314211438590717 0.050264142104765062
0.26700845233266302 0.05351245655483533
0.27719103938814466 0.054267507568313472
0.28382237687482892 0.054578369740067453
0.28789614703195937 0.052612085221393448
0.28859518959679525 0.049580444950095767
0.28625441868521684 0.047280935293109401
0.28210633469730073 0.043712606208021136
0.27608050118077621 0.041641485288280621
0.26943034906049529 0.03877192525747411
0.26243038503377153 0.037597838099814956
0.2563174193693582 0.037049621492700947
0.25034678949053663 0.035982370890680133
0.24395330542336241 0.035875769832486658
0.23742090035306815 0.035193321456393659
0.23126701371412431 0.035011570470145463
0.22672558230027723 0.034641779812135086
0.22557357048381962 0.034466748371130992
0.23026911338785111 0.034628881160917342
0.24086198382800739 0.035719287315998799
0.2579574099299205 0.036690201617297573
0.28138024771336057 0.039687297511958881
0.31150962647296665 0.042606377478737939
0.34663576368638471 0.049123620449132301
0.38582258058677082 0.055328993670939547
0.42436192961324448 0.065934172377486416
0.45805913028906836 0.077633816641346193
0.48492770463726353 0.088661258426789236
0.50693702559133946 0.094531877728541144
0.51879021207162235 0.10258005420213394
0.51945758460483593 0.10600008936745915
0.50944902562649264 0.10208294859538768
0.50386880518707966 0.073701430676394245
0.4618618888387836 0.072672474251183616
0.41139994350474907 0.070703093105897091
0.36528241130704109 0.062252042475002323
0.3246656373771748 0.052099358868164337
0.29120047951505146 0.04238200152859331
0.2646201127142247 0.035476131339932944
0.24420357878202542 0.032881594846999478
0.22870103421106222 0.035388035109101948
0.21648008595139023 0.043009523439888411
0.2051090407224066 0.055261962851931988
0.1968294854712643 0.070675866055991035
0.1871956682905907 0.089192019032621458
0.17654033105978295 0.10871209231664294
0.16440345907437048 0.12775476849115444
0.15239874418210189 0.14565755658920418
0.13903488098436254 0.16210806543891695
0.12476654086326835 0.17629832138612964
0.1098703508944264 0.18727798896032011
0.096298539312026588 0.19438293384533756
0.082104740549270361 0.19518872225461212
0.071823624958700594 0.18819662546294172
0.064522589325232832 0.16999649464999825
0.06437998696372757 0.13880010347798738
0.074904277886563495 0.094429429286032956
0.09592449837841259 0.035570535844188775
0.1317589177702799 -0.035798191332658269
0.18247766162332132 -0.11867655839652315
0.24908213196949297 -0.2114966970913206
0.33335004698356469 -0.31182667433941136
0.43440114101618527 -0.42053638368558144
0.55466956113973032 -0.53712912223144127
0.69528710762866597 -0.6615519989470775
0.85690373045833779 -0.79355333752101298
1.0395467208983316 -0.93278239195611468
1.2424687695770968 -1.0789164404390525
1.4642377472432835 -1.2313407233806994
1.7034574293878153 -1.3883331605778046
1.9573904240780784 -1.5515715693044652
2.2248058481866178 -1.7227103257103622
2.5038101878666996 -1.9036208136347714
2.7919411224304587 -2.0963435401943662
3.086183643957491 -2.3030777908778832
3.3828801862677431 -2.5262892595899866
3.6777511850180624 -2.7683277499354921
3.9659536925318899 -3.0312374921517118
4.2420294995519763 -3.3169279735050852
4.5000163410327509 -3.6268796484036003
4.73351760817149 -3.9619205422416677
4.9358076058854374 -4.3220203759562015
5.0998331794660485 -4.7062170859295849
5.2183214220949568 -5.1121660712629247
5.2846288896445932 -5.5354592308650794
5.292522687442653 -5.9703485380227717
5.2368379305256711 -6.4094772188111966
5.1139461961336492 -6.8440388744028198
4.9220705806474623 -7.2641720505128955
4.6617427431352336 -7.6593574853953488
4.3359928010342657 -8.0191070595921108
3.9503840172656806 -8.3337442971377058
3.5128059097833697 -8.5952364576062266
3.0330056745775331 -8.7979812320458013
2.521867710768825 -8.939436468583887
1.9905080729610047 -9.0204785055392556
1.4477971195589838 -9.0456340186088635
0.89430647563461185 -9.0192668542917716
0.34617693506571695 -8.9441890326242834
-0.19112289655250456 -8.826067595490704
-0.71378898209417752 -8.6708117841098904
-1.2194114706630688 -8.4833827766726841
-1.7063108808068006 -8.2665962476570325
-2.1724511956827719 -8.0200836127597466
-2.6131248062226131 -7.7395407346182532
-3.0133205616889835 -7.4236387262172894
-3.3716891409845511 -7.0621906688944263
-3.6657406274244995 -6.6526667748468071
-3.8797200045353102 -6.1913145248617205
-3.9957026875057378 -5.6782847583840663
-3.9946940561970643 -5.1244322407610978
-3.8768177913192856 -4.5356395893313985
-3.6421503095670791 -3.9271855019476014
-3.3045551375918869 -3.3111237866828969
-2.8822805713908508 -2.6940469459549239
-2.3838995620186747 -2.0808065812325154
-1.8159280423607904 -1.4737449959075821
-1.1890047782530047 -0.93457989498470739
-0.60703793251020344 -0.47899271727540566
-0.15710135672059569 -0.18124741605418532
0 0

        </DataArray>
        <DataArray type="Float32" Name="W" NumberOfComponents="2">

-31.574707413059457 10.15732617525339
-31.569166627705282 10.15172948398606
-31.56389171348065 10.145881640272091
-31.558884980028314 10.13980271304661
-31.55414750652352 10.133511781288735
-31.549678933961182 10.1270271779747
-31.545477560810802 10.120366440036337
-31.5415404206272 10.11354627571702
-31.537863888561947 10.106582255316628
-31.534442927089056 10.099489283378668
-31.531271487241153 10.092281373376704
-31.528337400555063 10.084973713363404
-31.525632493853443 10.077578240374644
-31.523147873959292 10.070105957423866
-31.520867739385693 10.062568838730739
-31.518781975762572 10.054975708121681
-31.516871765465748 10.047336595104621
-31.515125282643957 10.039658461834261
-31.513521215641205 10.0319493792862
-31.51203752900016 10.024216281377775
-31.510659594539462 10.016463688419266
-31.50936222883476 10.008697244484658
-31.508129341136176 10.000920331431727
-31.50693317817521 9.9931376999871748
-31.505755841527314 9.9853521989175835
-31.504567819794421 9.9775683057723725
-31.503337631448414 9.9697909315669602
-31.502042918233315 9.9620239847044996
-31.500649059537551 9.954274140205106
-31.499131344521885 9.9465474962527498
-31.497451905150346 9.938854255738871
-31.495584173595368 9.9312043892137751
-31.4934878607265 9.9236137848657791
-31.491135544671277 9.9160983448380922
-31.488501843911884 9.9086765659796239
-31.485560927638609 9.9013707674840568
-31.482274228510484 9.8942135036099614
-31.4786196595531 9.8872364966816573
-31.474579641862725 9.8804749198062538
-31.470140518468135 9.8739678908313504
-31.465275570240046 9.8677721915767442
-31.459998018047727 9.8619241407282203
-31.454338875823787 9.8564446955977179
-31.448328389722644 9.8513532954019833
-31.441998508077344 9.8466651096789199
-31.435380967832838 9.8423927667959052
-31.428507338089631 9.8385461712398232
-31.421408701032941 9.8351328398793871
-31.414115513495133 9.832158052164953
-31.406657617582866 9.8296246200129662
-31.399064725873199 9.8275305592537308
-31.391363846731526 9.82587760445195
-31.383581917242505 9.82466263571275
-31.375744719918071 9.8238804908488877
-31.367876747002565 9.8235237063891994
-31.360001011577229 9.8235870853016216
-31.35213951473013 9.8240635924430677
-31.344313142067517 9.8249451078033694
-31.336541576772468 9.8262221917879149
-31.328844081504759 9.8278882483876036
-31.321237918064732 9.8299309033542919
-31.313740166706253 9.832341060863703
-31.306365060745048 9.8351036450482123
-31.299124908210924 9.8382025348169861
-31.292031764635272 9.8416243857368606
-31.285093764682085 9.8453505976876681
-31.278318925561727 9.8493656627842316
-31.271713271915832 9.8536532227088625
-31.265280764222084 9.8581962677158455
-31.25902623446142 9.8629812259350409
-31.252949707808003 9.8679901484794073
-31.247048948968686 9.8732048403232717
-31.241319412828084 9.8786069559138312
-31.235754264022056 9.8841781347120694
-31.230344340983073 9.8899000358557316
-31.22507789069703 9.8957541352890122
-31.219941426564468 9.9017224983905994
-31.214924211037673 9.9077913484875122
-31.210009334475089 9.9139432830828493
-31.205178249777408 9.9201611629537698
-31.200410924407645 9.9264280067980604
-31.19568602842272 9.9327268671941642
-31.190981195820925 9.9390407150233209
-31.186272738631349 9.9453518718454905
-31.181536871495613 9.9516425240171795
-31.176749595303217 9.9578942073306056
-31.171887054193839 9.9640876245423993
-31.166925923078495 9.970202476479848
-31.161843867592644 9.9762173578543614
-31.156619894524912 9.9821095862583871
-31.151234399041499 9.987854770083576
-31.145670564539632 9.9934276628296406
-31.139914366338008 9.9988019021925556
-31.133955009273187 10.003950235842778
-31.127785367271429 10.008844913566431
-31.121402207407556 10.013458014437242
-31.114806437700487 10.017761996583015
-31.10800318477424 10.021730254422643
-31.101001727109132 10.025337691412691
-31.09381527798941 10.028561262155099
-31.086460628312746 10.031380437528201
-31.078957671350089 10.033777540157301
-31.071328853300859 10.035737922265644
-31.063598591552061 10.037249926420831
-31.055791483504127 10.038295397395574
-31.047935480646341 10.038867800429314
-31.040059220917517 10.038963093014605
-31.032191747801406 10.038579447424047
-31.024362320913298 10.037716999515608
-31.016600304211302 10.036377622990919
-31.008935086126957 10.034564880229286
-31.00139622140135 10.032283301393667
-30.994009067016627 10.029550505983591
-30.9868010277943 10.026375556502712
-30.979793263623691 10.022780414080335
-30.973002998028502 10.018789974275498
-30.966442546939458 10.014432310669394
-30.960111378699022 10.009748032824268
-30.954008192159264 10.00477060266944
-30.948123308209688 9.9995370915738047
-30.942447413622478 9.9940777932422886
-30.936983518384746 9.9884064246736664
-30.931746179238278 9.9825252241294073
-30.926737132409158 9.9764483659861103
-30.92186266404503 9.970262961769798
-30.917090948833831 9.9639978077512179
-30.91240578067795 9.9576674589266805
-30.907867229816556 9.951230867519449

        </DataArray>
        <DataArray type="Float32" Name="u" NumberOfComponents="1">
          0 0.007874015748031496 0.015748031496062992 0.023622047244094488 0.031496062992125984 0.03937007874015748 0.047244094488188976 0.055118110236220472 0.062992125984251968 0.070866141732283464 0.07874015748031496 0.086614173228346455 0.094488188976377951 0.10236220472440945 0.11023622047244094 0.11811023622047244 0.12598425196850394 0.13385826771653545 0.14173228346456693 0.14960629921259844 0.15748031496062992 0.16535433070866143 0.17322834645669291 0.18110236220472442 0.1889763779527559 0.19685039370078741 0.20472440944881889 0.2125984251968504 0.22047244094488189 0.2283464566929134 0.23622047244094488 0.24409448818897639 0.25196850393700787 0.25984251968503935 0.26771653543307089 0.27559055118110237 0.28346456692913385 0.29133858267716534 0.29921259842519687 0.30708661417322836 0.31496062992125984 0.32283464566929132 0.33070866141732286 0.33858267716535434 0.34645669291338582 0.3543307086614173 0.36220472440944884 0.37007874015748032 0.37795275590551181 0.38582677165354329 0.39370078740157483 0.40157480314960631 0.40944881889763779 0.41732283464566927 0.42519685039370081 0.43307086614173229 0.44094488188976377 0.44881889763779526 0.45669291338582679 0.46456692913385828 0.47244094488188976 0.48031496062992124 0.48818897637795278 0.49606299212598426 0.50393700787401574 0.51181102362204722 0.51968503937007871 0.52755905511811019 0.53543307086614178 0.54330708661417326 0.55118110236220474 0.55905511811023623 0.56692913385826771 0.57480314960629919 0.58267716535433067 0.59055118110236215 0.59842519685039375 0.60629921259842523 0.61417322834645671 0.62204724409448819 0.62992125984251968 0.63779527559055116 0.64566929133858264 0.65354330708661412 0.66141732283464572 0.6692913385826772 0.67716535433070868 0.68503937007874016 0.69291338582677164 0.70078740157480313 0.70866141732283461 0.71653543307086609 0.72440944881889768 0.73228346456692917 0.74015748031496065 0.74803149606299213 0.75590551181102361 0.76377952755905509 0.77165354330708658 0.77952755905511806 0.78740157480314965 0.79527559055118113 0.80314960629921262 0.8110236220472441 0.81889763779527558 0.82677165354330706 0.83464566929133854 0.84251968503937003 0.85039370078740162 0.8582677165354331 0.86614173228346458 0.87401574803149606 0.88188976377952755 0.88976377952755903 0.89763779527559051 0.90551181102362199 0.91338582677165359 0.92125984251968507 0.92913385826771655 0.93700787401574803 0.94488188976377951 0.952755905511811 0.96062992125984248 0.96850393700787396 0.97637795275590555 0.98425196850393704 0.99212598425196852 1
        </DataArray>
      </PointData>
      <CellData Scalars="P">
        <DataArray type="Float32" Name="P" NumberOfComponents="1">
          0.025884814267377699 0.10359046449920507 0.19833876947953877 0.30623336154148689 0.42574775171169094 0.5567413850120857 0.6995315643073774 0.85431617933294013 1.0185835936019667 1.1880868796061537 1.3537948802792761 1.5205124620486752 1.68643877888525 1.8421831864386582 1.9919605582945696 2.1263922549390823 2.2508670580204804 2.3571533243127272 2.4476280198653013 2.529815109554312 2.6002507174461047 2.6643617841450316 2.720167289318288 2.7727012769583523 2.826361084809486 2.8913258676477103 2.9732396061557806 3.089287732546862 3.2420731564398824 3.4559620999994713 3.7236647261478861 4.0681869978738403 4.4585895231847816 4.8773535163396247 5.32082561539994 5.8125733209355142 6.3022383928606782 6.7643508348754047 7.1954730317447204 7.6335840426856265 7.9846733446269154 8.3027776617801194 8.6294628738663999 8.9844589042487755 9.380722663853291 9.8234310174256319 10.312226555160231 10.841587815288557 11.400990594046737 11.974800390307957 12.567230817488168 13.159523916378834 13.738714699042562 14.296315619512658 14.83732140405934 15.356998141898147 15.850289467956546 16.311119837862353 16.737951484446839 17.108475981376614 17.413918462894873 17.629778535404427 17.745798710411513 17.761129325645602 17.672962470145102 17.489248243498213 17.218497040475913 16.870438527190178 16.44823863801528 15.959742748116883 15.410746631128527 14.811447146116421 14.176257592131631 13.523799108649307 12.877833987347849 12.261420361566497 11.672712884229048 11.15466188704192 10.727927068314736 10.414399359585138 10.236140162879366 10.214070249162242 10.371430291912498 10.721377583456333 11.276159965610217 12.042897801357233 13.022724328174892 14.209629117415329 15.59109598797205 17.150535920300879 18.853598547286701 20.661688638268348 22.528647278722655 24.401715548980636 26.225176541792134 27.942116180173986 29.498530322941846 30.847548866526697 31.953764364357163 32.797143915012626 33.375985776369895 33.708335924314689 33.831533582024292 33.796527928494747 33.629455045969252 33.366587115829169 33.045744825697263 32.699335419601844 32.346631770185134 31.985496825601203 31.583120488569854 31.081565151042003 30.402259514799422 29.454923040162694 28.149500029816814 26.418902333806027 24.301761987016231 21.816614309422111 19.103137363808322 16.241209786983575 13.13705566549705 9.6583820374030029 6.0073741214632754 3.7879508322671427 2.1647144398321227 1.0400339065870672 -0.027086740116488973
        </DataArray>
      </CellData>
      <Points>
        <DataArray type="Float32" NumberOfComponents="3" format="ascii">
          -31.574707413059457 10.15732617525339 0
          -31.569166627705282 10.15172948398606 0
          -31.56389171348065 10.145881640272091 0
          -31.558884980028314 10.13980271304661 0
          -31.55414750652352 10.133511781288735 0
          -31.549678933961182 10.1270271779747 0
          -31.545477560810802 10.120366440036337 0
          -31.5415404206272 10.11354627571702 0
          -31.537863888561947 10.106582255316628 0
          -31.534442927089056 10.099489283378668 0
          -31.531271487241153 10.092281373376704 0
          -31.528337400555063 10.084973713363404 0
          -31.525632493853443 10.077578240374644 0
          -31.523147873959292 10.070105957423866 0
          -31.520867739385693 10.062568838730739 0
          -31.518781975762572 10.054975708121681 0
          -31.516871765465748 10.047336595104621 0
          -31.515125282643957 10.039658461834261 0
          -31.513521215641205 10.0319493792862 0
          -31.51203752900016 10.024216281377775 0
          -31.510659594539462 10.016463688419266 0
          -31.50936222883476 10.008697244484658 0
          -31.508129341136176 10.000920331431727 0
          -31.50693317817521 9.9931376999871748 0
          -31.505755841527314 9.9853521989175835 0
          -31.504567819794421 9.9775683057723725 0
          -31.503337631448414 9.9697909315669602 0
          -31.502042918233315 9.9620239847044996 0
          -31.500649059537551 9.954274140205106 0
          -31.499131344521885 9.9465474962527498 0
          -31.497451905150346 9.938854255738871 0
          -31.495584173595368 9.9312043892137751 0
          -31.4934878607265 9.9236137848657791 0
          -31.491135544671277 9.9160983448380922 0
          -31.488501843911884 9.9086765659796239 0
          -31.485560927638609 9.9013707674840568 0
          -31.482274228510484 9.8942135036099614 0
          -31.4786196595531 9.8872364966816573 0
          -31.474579641862725 9.8804749198062538 0
          -31.470140518468135 9.8739678908313504 0
          -31.465275570240046 9.8677721915767442 0
          -31.459998018047727 9.8619241407282203 0
          -31.454338875823787 9.8564446955977179 0
          -31.448328389722644 9.8513532954019833 0
          -31.441998508077344 9.8466651096789199 0
          -31.435380967832838 9.8423927667959052 0
          -31.428507338089631 9.8385461712398232 0
          -31.421408701032941 9.8351328398793871 0
          -31.414115513495133 9.832158052164953 0
          -31.406657617582866 9.8296246200129662 0
          -31.399064725873199 9.8275305592537308 0
          -31.391363846731526 9.82587760445195 0
          -31.383581917242505 9.82466263571275 0
          -31.375744719918071 9.8238804908488877 0
          -31.367876747002565 9.8235237063891994 0
          -31.360001011577229 9.8235870853016216 0
          -31.35213951473013 9.8240635924430677 0
          -31.344313142067517 9.8249451078033694 0
          -31.336541576772468 9.8262221917879149 0
          -31.328844081504759 9.8278882483876036 0
          -31.321237918064732 9.8299309033542919 0
          -31.313740166706253 9.832341060863703 0
          -31.306365060745048 9.8351036450482123 0
          -31.299124908210924 9.8382025348169861 0
          -31.292031764635272 9.8416243857368606 0
          -31.285093764682085 9.8453505976876681 0
          -31.278318925561727 9.8493656627842316 0
          -31.271713271915832 9.8536532227088625 0
          -31.265280764222084 9.8581962677158455 0
          -31.25902623446142 9.8629812259350409 0
          -31.252949707808003 9.8679901484794073 0
          -31.247048948968686 9.8732048403232717 0
          -31.241319412828084 9.8786069559138312 0
          -31.235754264022056 9.8841781347120694 0
          -31.230344340983073 9.8899000358557316 0
          -31.22507789069703 9.8957541352890122 0
          -31.219941426564468 9.9017224983905994 0
          -31.214924211037673 9.9077913484875122 0
          -31.210009334475089 9.9139432830828493 0
          -31.205178249777408 9.9201611629537698 0
          -31.200410924407645 9.9264280067980604 0
          -31.19568602842272 9.9327268671941642 0
          -31.190981195820925 9.9390407150233209 0
          -31.186272738631349 9.9453518718454905 0
          -31.181536871495613 9.9516425240171795 0
          -31.176749595303217 9.9578942073306056 0
          -31.171887054193839 9.9640876245423993 0
          -31.166925923078495 9.970202476479848 0
          -31.161843867592644 9.9762173578543614 0
          -31.156619894524912 9.9821095862583871 0
          -31.151234399041499 9.987854770083576 0
          -31.145670564539632 9.9934276628296406 0
          -31.139914366338008 9.9988019021925556 0
          -31.133955009273187 10.003950235842778 0
          -31.127785367271429 10.008844913566431 0
          -31.121402207407556 10.013458014437242 0
          -31.114806437700487 10.017761996583015 0
          -31.10800318477424 10.021730254422643 0
          -31.101001727109132 10.025337691412691 0
          -31.09381527798941 10.028561262155099 0
          -31.086460628312746 10.031380437528201 0
          -31.078957671350089 10.033777540157301 0
          -31.071328853300859 10.035737922265644 0
          -31.063598591552061 10.037249926420831 0
          -31.055791483504127 10.038295397395574 0
          -31.047935480646341 10.038867800429314 0
          -31.040059220917517 10.038963093014605 0
          -31.032191747801406 10.038579447424047 0
          -31.024362320913298 10.037716999515608 0
          -31.016600304211302 10.036377622990919 0
          -31.008935086126957 10.034564880229286 0
          -31.00139622140135 10.032283301393667 0
          -30.994009067016627 10.029550505983591 0
          -30.9868010277943 10.026375556502712 0
          -30.979793263623691 10.022780414080335 0
          -30.973002998028502 10.018789974275498 0
          -30.966442546939458 10.014432310669394 0
          -30.960111378699022 10.009748032824268 0
          -30.954008192159264 10.00477060266944 0
          -30.948123308209688 9.9995370915738047 0
          -30.942447413622478 9.9940777932422886 0
          -30.936983518384746 9.9884064246736664 0
          -30.931746179238278 9.9825252241294073 0
          -30.926737132409158 9.9764483659861103 0
          -30.92186266404503 9.970262961769798 0
          -30.917090948833831 9.9639978077512179 0
          -30.91240578067795 9.9576674589266805 0
          -30.907867229816556 9.951230867519449 0
        </DataArray>
      </Points>
      <Cells>
        <DataArray type="Int32" Name="connectivity" format="ascii">
          0 1 1 2 2 3 3 4 4 5 5 6 6 7 7 8 8 9 9 10 10 11 11 12 12 13 13 14 14 15 15 16 16 17 17 18 18 19 19 20 20 21 21 22 22 23 23 24 24 25 25 26 26 27 27 28 28 29 29 30 30 31 31 32 32 33 33 34 34 35 35 36 36 37 37 38 38 39 39 40 40 41 41 42 42 43 43 44 44 45 45 46 46 47 47 48 48 49 49 50 50 51 51 52 52 53 53 54 54 55 55 56 56 57 57 58 58 59 59 60 60 61 61 62 62 63 63 64 64 65 65 66 66 67 67 68 68 69 69 70 70 71 71 72 72 73 73 74 74 75 75 76 76 77 77 78 78 79 79 80 80 81 81 82 82 83 83 84 84 85 85 86 86 87 87 88 88 89 89 90 90 91 91 92 92 93 93 94 94 95 95 96 96 97 97 98 98 99 99 100 100 101 101 102 102 103 103 104 104 105 105 106 106 107 107 108 108 109 109 110 110 111 111 112 112 113 113 114 114 115 115 116 116 117 117 118 118 119 119 120 120 121 121 122 122 123 123 124 124 125 125 126 126 127 
        </DataArray>
        <DataArray type="Int32" Name="offsets" format="ascii">
          2 4 6 8 10 12 14 16 18 20 22 24 26 28 30 32 34 36 38 40 42 44 46 48 50 52 54 56 58 60 62 64 66 68 70 72 74 76 78 80 82 84 86 88 90 92 94 96 98 100 102 104 106 108 110 112 114 116 118 120 122 124 126 128 130 132 134 136 138 140 142 144 146 148 150 152 154 156 158 160 162 164 166 168 170 172 174 176 178 180 182 184 186 188 190 192 194 196 198 200 202 204 206 208 210 212 214 216 218 220 222 224 226 228 230 232 234 236 238 240 242 244 246 248 250 252 254 
        </DataArray>
        <DataArray type="Int32" Name="types" format="ascii">
          3 3 3 3 3 3 3 3 3 3 3 3 3 3 3 3 3 3 3 3 3 3 3 3 3 3 3 3 3 3 3 3 3 3 3 3 3 3 3 3 3 3 3 3 3 3 3 3 3 3 3 3 3 3 3 3 3 3 3 3 3 3 3 3 3 3 3 3 3 3 3 3 3 3 3 3 3 3 3 3 3 3 3 3 3 3 3 3 3 3 3 3 3 3 3 3 3 3 3 3 3 3 3 3 3 3 3 3 3 3 3 3 3 3 3 3 3 3 3 3 3 3 3 3 3 3 3         </DataArray>
      </Cells>
    </Piece>
  </UnstructuredGrid>
</VTKFile>
<!-- DATA


-->
