<?xml version="1.0"?>
<VTKFile type="UnstructuredGrid" version="0.1" byte_order="LittleEndian">
  <UnstructuredGrid>
    <Piece NumberOfPoints="128" NumberOfCells="127">
      <PointData Scalars="u">
        <DataArray type="Float32" Name="Y" NumberOfComponents="2">

0 0
0.05295884666382468 -0.011865764803194144
0.046266916588821184 -0.028408863447647585
0.028265385268589866 -0.060295821128565005
-0.0035010864064679401 -0.10338203215037715
-0.050253966631853823 -0.15325577724286188
-0.11193568054568888 -0.20557138756370111
-0.18727401107456895 -0.25637759436063445
-0.27394497139821861 -0.30240029283724745
-0.3688098256594326 -0.34124726186667215
-0.46819361900011347 -0.37151480919974073
-0.56817024200805999 -0.39279041519664459
-0.66482256200934042 -0.40555870833166507
-0.75445429724451252 -0.41102848771807493
-0.83374118653842799 -0.41090484551270423
-0.89982049045145285 -0.40713257284880627
-0.95032803501654051 -0.40163568417933043
-0.98339947240314884 -0.39607436207472907
-0.99765639136380635 -0.39163638318558214
-0.99219812811962593 -0.38887639467614193
-0.96661676776057481 -0.38761401677669888
-0.92104628685889611 -0.38690072333148068
-0.85624762519229758 -0.38506515646862977
-0.77372043032801907 -0.37984572336986067
-0.67582037272620155 -0.36861639718871325
-0.56584988700118655 -0.34870502515554203
-0.44808221270871551 -0.31779210543817343
-0.32767648163087726 -0.27436206413735459
-0.2104481952156429 -0.21816039576693311
-0.10247679898382313 -0.15059247309132642
-0.0095602214026423889 -0.074988919564588724
0.063437913321178277 0.0033357294260311261
0.11326592045545991 0.077285060061124539
0.13887602079858977 0.13845976303563912
0.14181107043110577 0.1778782922107992
0.12628378660144701 0.18684917911965918
0.098890736930133727 0.15786152053049102
0.067967542453143945 0.085342129574154948
0.042660521017195745 -0.033856144446168572
0.031845091525897526 -0.2003212595854047
0.04304737316078721 -0.41231909204195061
0.081515810929321392 -0.6663406079327221
0.14954865558350325 -0.95783831306481315
0.24612437688032626 -1.2819987578891889
0.36682351189752577 -1.6343978099098115
0.50398812504544122 -2.0114128940707485
0.64704858452812342 -2.4103109980538204
0.78295804100832089 -2.8289817325011928
0.8967067607077629 -3.2653332159771975
0.97193033403857754 -3.716412204405751
0.99166449833887571 -4.1773501234046204
0.9431002506107653 -4.6394410527428382
0.82968675088660382 -5.0893170714324194
0.66153141911686841 -5.5121522664444322
0.43888732287459331 -5.8956502699603961
0.16506192541517284 -6.2277849120495361
-0.15351460313638424 -6.4974345937484506
-0.50745220574814909 -6.6950610218913944
-0.88480573615507663 -6.8133601324260091
-1.2717046700550612 -6.8478062932571175
-1.6531611893541838 -6.7970168109836475
-2.0139846086461843 -6.6628825113233301
-2.3397139455204115 -6.4504390656943773
-2.6174772669461457 -6.167487732243023
-2.8366972012741076 -5.8240069398683811
-2.9895845717219007 -5.4314216404900817
-3.0713918877569872 -5.0018113466178251
-3.0804296184401831 -4.547138724432461
-3.0178752388501073 -4.0785698070977761
-2.8874239884080426 -3.6059377631076512
-2.6948393071001671 -3.137379164498542
-2.4474604043367139 -2.6791491697832113
-2.1537163941672697 -2.2356032502022924
-1.8226837763031931 -1.8093198639201171
-1.4637097018247185 -1.401331197762745
-1.0861098859257292 -1.0114270248997614
-0.69893888560345052 -0.6384985191015965
-0.31082259847881888 -0.28089300456275057
0.070161571535664449 0.063244239889031079
0.43657270533194664 0.39565983923765674
0.78167705134513821 0.71772792745566205
1.099512788282089 1.0302416561897496
1.3849559662221111 1.3332674400352571
1.6337899707852175 1.6260657944180346
1.8427762568975417 1.9070797061471247
2.0097202037658977 2.1739884076568439
2.1335232059657878 2.4238211340104145
2.2142108669860456 2.653122034214932
2.2529275700911184 2.858154156094503
2.2518897346724782 3.0351277150682785
2.214293479783024 3.1804361100114442
2.1441767653727681 3.2908827192350172
2.0462407764766177 3.3638825961966132
1.9256397076798859 3.3976257708931934
1.7877515924414604 3.3911926966988508
1.6379449450234567 3.344617010756461
1.4813565020320492 3.2588956186165805
1.3226942704766973 3.1359505674823067
1.1660776414504093 2.9785507131553057
1.0149229090426346 2.7902034525493677
0.87187862043468678 2.5750276333946442
0.7388112403311442 2.3376182269882824
0.61683802922318887 2.0829116984391569
0.5064010683551452 1.816058596936359
0.40737414389145965 1.5423071349513593
0.31919273837956325 1.2668988427581198
0.24099660672793746 0.99497512570447377
0.17177424223817239 0.73149197498280638
0.11049888360960561 0.48113933199751596
0.056246529521852079 0.24826170451539151
0.0082877093087859871 0.036777484720355337
-0.033853470692211195 -0.14990417312341953
-0.070377206663568781 -0.30896837091968005
-0.1012242417102116 -0.43827918817976735
-0.12612876993321756 -0.53646061494081776
-0.14470297131924617 -0.60296950273893135
-0.15654494363717744 -0.63815636851257773
-0.16135908043206082 -0.6433106229335831
-0.15907610214353785 -0.62068805388540771
-0.14995932795504127 -0.57351985412971873
-0.13468463060836058 -0.5060037434533865
-0.11438395777538959 -0.4232784253717724
-0.090646290159751022 -0.33138248636328088
-0.065475243059042842 -0.2371978508744888
-0.04120886455773913 -0.14837625846017261
-0.020414064237229537 -0.073245367240336548
-0.0057749093685025574 -0.020689574086447511
0 0

        </DataArray>
        <DataArray type="Float32" Name="W" NumberOfComponents="2">

-1.4625703693558405 0.71610929875489948
-1.4549662345138792 0.71406501977800974
-1.4475462492232505 0.71142953934959996
-1.4403552514359155 0.70822150946621276
-1.4334340474740166 0.7044666753963893
-1.4268180166171438 0.70019702768263492
-1.4205359202300185 0.69544972202568867
-1.4146089657520233 0.69026583085704718
-1.409050158035305 0.68468900113816311
-1.4038639510190816 0.67876409818863381
-1.399046193374363 0.67253591476548902
-1.3945843443733166 0.66604801839624628
-1.3904579224568838 0.65934179886598276
-1.3866391400121956 0.65245576297024632
-1.3830936743856754 0.64542510662958263
-1.3797815271676532 0.63828157671965324
-1.376657930681741 0.63105361783337177
-1.3736742712551957 0.62376678364594429
-1.3707790117100584 0.61644437915369266
-1.3679186088687132 0.60910828892511537
-1.3650384339483508 0.6017799374234859
-1.3620837128785308 0.59448132005082532
-1.3590005083990653 0.58723603747758257
-1.3557367651957741 0.58007026096202197
-1.3522434326478792 0.57301355304753709
-1.348475666868703 0.5660994670876307
-1.3443940951728619 0.55936585181609388
-1.3399661032785948 0.55285479531959891
-1.3351670807854168 0.54661215796390739
-1.3299815370614405 0.54068666730078652
-1.3244039817423472 0.53512857994151575
-1.3184394560553894 0.52998795443727686
-1.3121036072134051 0.5253126219990264
-1.3054222208628909 0.52114598309045257
-1.2984301662730608 0.51752479078823599
-1.2911697626717058 0.51447709931172259
-1.283688636567679 0.51202055261697443
-1.2760372001312079 0.5101611608089639
-1.2682659298312779 0.50889266301820457
-1.2604226538793775 0.50819651055523873
-1.2525500613237073 0.50804243348031408
-1.2446836244270849 0.50838948872491896
-1.2368500837909311 0.50918743920482123
-1.2290665909052716 0.51037828842540311
-1.2213405453733186 0.5118977968200048
-1.2136701130631864 0.51367683275424603
-1.2060453730205833 0.51564245739963588
-1.1984500172113917 0.51771870112197527
-1.1908635160385752 0.51982705181563293
-1.1832636589048084 0.52188673559666998
-1.1756293760274268 0.5238149213619786
-1.1679437385461078 0.52552701767124355
-1.1601996244730539 0.52695146789468927
-1.1524040648074383 0.52806037914890025
-1.1445674847273721 0.52882753490408607
-1.1367036879682308 0.52922915739068743
-1.1288296518127843 0.52924465327944137
-1.1209651284499209 0.52885730329913494
-1.1131320627907775 0.52805485370203231
-1.1053538518369952 0.5268299692084859
-1.0976544846447249 0.52518051367779961
-1.0900576129916224 0.52310963589452752
-1.0825856094510513 0.52062565236580083
-1.0752586707048815 0.51774173510347765
-1.0680940193865935 0.51447542790631651
-1.0611052482068364 0.51084802762981707
-1.0543018369736814 0.50688387575319305
-1.0476888582267396 0.50260960935611088
-1.0412668724925929 0.49805341934316427
-1.0350320013175267 0.49324435807180461
-1.0289761564175621 0.48821172963624915
-1.0230873970651393 0.48298458536178224
-1.0173503851745582 0.47759133596827752
-1.0117469079568542 0.47205948153384281
-1.0062564407041243 0.46641545164927539
-1.0008567263439556 0.46068454145316273
-0.99552435303447218 0.45489092470424186
-0.99023531555847566 0.44905772257070548
-0.98496555013371934 0.44320710613874142
-0.97969143521208657 0.43736041144587595
-0.97439025281469072 0.43153824780838168
-0.96904060602268949 0.42576058304880965
-0.96362278861008843 0.42004679269613721
-0.95811910273106404 0.41441566412102893
-0.95251412035520755 0.40888535069777082
-0.94679488406471912 0.40347327527179461
-0.94095104312955191 0.39819598626710612
-0.93497492162952389 0.39306897348726383
-0.92886151687393836 0.38810645383552989
-0.92260842845396596 0.38332113960274361
-0.91621572082483727 0.37872400347734836
-0.90968572514210577 0.37432405491245258
-0.90302278889916332 0.37012814191313581
-0.89623298444066235 0.36614079075076661
-0.88932378938613976 0.36236409373026712
-0.88230375317368881 0.35879765216878129
-0.87518216419328287 0.35543857847709898
-0.86796873129115981 0.35228155796877014
-0.86067329185747665 0.34931896803230128
-0.85330555641108874 0.34654104980873079
-0.84587489677982075 0.34393612566078996
-0.83839018188472147 0.34149085455283978
-0.83085966201698103 0.33919051695020086
-0.82329089956870471 0.33701932088995779
-0.81569074162748512 0.33496072132322485
-0.80806532780737872 0.33299774551045824
-0.8004201252562394 0.33111331800033439
-0.79275998199917497 0.32929057939890916
-0.78508918966077723 0.32751319364145876
-0.77741154713331873 0.32576563876803499
-0.76973041787370833 0.32403347628142526
-0.7620487751391698 0.32230359408571196
-0.75436923150053981 0.32056441785226109
-0.74669405126150934 0.31880608554231865
-0.73902514679074882 0.31702057983366261
-0.73136406204677396 0.31520181343350157
-0.72371194853652721 0.31334566275454628
-0.71606954039930615 0.31144994618417515
-0.70843713607938075 0.30951434414221618
-0.70081459402920232 0.30754025922301026
-0.69320134903212571 0.30553061586170732
-0.68559645410199821 0.30348960007496956
-0.67799865065818365 0.30142234085964131
-0.67040646703574747 0.29933453579766528
-0.66281834270249096 0.29723202437322044
-0.65523277321073115 0.29512031356080215
-0.64764846933880871 0.29300406150619135
-0.64006452349699627 0.29088652668978388

        </DataArray>
        <DataArray type="Float32" Name="u" NumberOfComponents="1">
          0 0.007874015748031496 0.015748031496062992 0.023622047244094488 0.031496062992125984 0.03937007874015748 0.047244094488188976 0.055118110236220472 0.062992125984251968 0.070866141732283464 0.07874015748031496 0.086614173228346455 0.094488188976377951 0.10236220472440945 0.11023622047244094 0.11811023622047244 0.12598425196850394 0.13385826771653545 0.14173228346456693 0.14960629921259844 0.15748031496062992 0.16535433070866143 0.17322834645669291 0.18110236220472442 0.1889763779527559 0.19685039370078741 0.20472440944881889 0.2125984251968504 0.22047244094488189 0.2283464566929134 0.23622047244094488 0.24409448818897639 0.25196850393700787 0.25984251968503935 0.26771653543307089 0.27559055118110237 0.28346456692913385 0.29133858267716534 0.29921259842519687 0.30708661417322836 0.31496062992125984 0.32283464566929132 0.33070866141732286 0.33858267716535434 0.34645669291338582 0.3543307086614173 0.36220472440944884 0.37007874015748032 0.37795275590551181 0.38582677165354329 0.39370078740157483 0.40157480314960631 0.40944881889763779 0.41732283464566927 0.42519685039370081 0.43307086614173229 0.44094488188976377 0.44881889763779526 0.45669291338582679 0.46456692913385828 0.47244094488188976 0.48031496062992124 0.48818897637795278 0.49606299212598426 0.50393700787401574 0.51181102362204722 0.51968503937007871 0.52755905511811019 0.53543307086614178 0.54330708661417326 0.55118110236220474 0.55905511811023623 0.56692913385826771 0.57480314960629919 0.58267716535433067 0.59055118110236215 0.59842519685039375 0.60629921259842523 0.61417322834645671 0.62204724409448819 0.62992125984251968 0.63779527559055116 0.64566929133858264 0.65354330708661412 0.66141732283464572 0.6692913385826772 0.67716535433070868 0.68503937007874016 0.69291338582677164 0.70078740157480313 0.70866141732283461 0.71653543307086609 0.72440944881889768 0.73228346456692917 0.74015748031496065 0.74803149606299213 0.75590551181102361 0.76377952755905509 0.77165354330708658 0.77952755905511806 0.78740157480314965 0.79527559055118113 0.80314960629921262 0.8110236220472441 0.81889763779527558 0.82677165354330706 0.83464566929133854 0.84251968503937003 0.85039370078740162 0.8582677165354331 0.86614173228346458 0.87401574803149606 0.88188976377952755 0.88976377952755903 0.89763779527559051 0.90551181102362199 0.91338582677165359 0.92125984251968507 0.92913385826771655 0.93700787401574803 0.94488188976377951 0.952755905511811 0.96062992125984248 0.96850393700787396 0.97637795275590555 0.98425196850393704 0.99212598425196852 1
        </DataArray>
      </PointData>
      <CellData Scalars="P">
        <DataArray type="Float32" Name="P" NumberOfComponents="1">
          0.0043892261433839943 0.22546985506880199 0.63949958093048498 1.2206313129141881 1.9373502398810594 2.7537940728270671 3.6314716913777167 4.5312404538062347 5.4153845039372923 6.2496351885801715 7.0049892876403055 7.6592080767808559 8.1979154928448601 8.6152511565104746 8.914068107703681 9.1056913094796492 9.2092686513345825 9.2507510712783478 9.2615346555243239 9.2767893528887235 9.3334918146988013 9.4681798581021432 9.7144585899449307 10.100317050040983 10.645360218012296 11.358121337077725 12.233685986426591 13.251919507431092 14.376626486340825 15.555966446494004 16.724387287670268 17.806208373659686 18.720792568213511 19.389011923434964 19.7404729978756 19.720774063164328 19.297966916923826 18.467425469324649 17.254489305457057 15.714527364395339 13.930399984848474 12.007617234058046 10.067732784350694 8.2406336699308991 6.656378494718 5.4371247804917768 4.6895185209053283 4.4977528390618016 4.9173887478824634 5.9700018393337606 7.6387811489156583 9.7367496385091599 11.904900893431183 14.067564173769137 16.142545003429753 18.045857489741305 19.696820931280516 21.023143201438039 21.965585552128559 22.481816551842243 22.549122654847537 22.165746530021501 21.35075966260667 20.142523557887952 18.595931698363831 16.77873176148735 14.767290436781265 12.642176458167071 10.483905350900905 8.3691231994952613 6.3674215764890887 4.5388869324569745 2.9324078557395281 1.5847009622387398 0.51997437892350773 -0.24987360338503803 -0.72462741917784701 -0.91479739914316049 -0.84041694894839825 -0.52966014449943088 -0.017330271825849661 0.6567420856949211 1.4493595164982511 2.3156462792330386 3.2107311727960961 4.0913850516721437 4.917566248982836 5.65382134896356 6.2704860645398286 6.7446328876034185 7.0607194365014925 7.2109039308128553 7.1950110457322571 7.0201509245976457 6.7000143354592199 6.253885755260896 5.7054317334225155 5.0813329479855467 4.4098343326167742 3.7192886277098287 3.0367653639118499 2.3867906336979106 1.7902741391777426 1.2636698508012787 0.81840576388846997 0.46060687706928144 0.19112344386842969 0.0058633406075614437 -0.10358738319528266 -0.14908823073234001 -0.14486266620236515 -0.1062799682001417 -0.048586296208021948 0.014316016901044375 0.070935231526913028 0.11299988780505479 0.13592230015429335 0.13885333456749629 0.12430472179222884 0.097364066214538414 0.064582986055381389 0.032675231636958242 0.0072128623803286405 -0.0084522462477826521 -0.013793945447409311 -0.011001272015342234 -0.0039423396378515376
        </DataArray>
      </CellData>
      <Points>
        <DataArray type="Float32" NumberOfComponents="3" format="ascii">
          -1.4625703693558405 0.71610929875489948 0
          -1.4549662345138792 0.71406501977800974 0
          -1.4475462492232505 0.71142953934959996 0
          -1.4403552514359155 0.70822150946621276 0
          -1.4334340474740166 0.7044666753963893 0
          -1.4268180166171438 0.70019702768263492 0
          -1.4205359202300185 0.69544972202568867 0
          -1.4146089657520233 0.69026583085704718 0
          -1.409050158035305 0.68468900113816311 0
          -1.4038639510190816 0.67876409818863381 0
          -1.399046193374363 0.67253591476548902 0
          -1.3945843443733166 0.66604801839624628 0
          -1.3904579224568838 0.65934179886598276 0
          -1.3866391400121956 0.65245576297024632 0
          -1.3830936743856754 0.64542510662958263 0
          -1.3797815271676532 0.63828157671965324 0
          -1.376657930681741 0.63105361783337177 0
          -1.3736742712551957 0.62376678364594429 0
          -1.3707790117100584 0.61644437915369266 0
          -1.3679186088687132 0.60910828892511537 0
          -1.3650384339483508 0.6017799374234859 0
          -1.3620837128785308 0.59448132005082532 0
          -1.3590005083990653 0.58723603747758257 0
          -1.3557367651957741 0.58007026096202197 0
          -1.3522434326478792 0.57301355304753709 0
          -1.348475666868703 0.5660994670876307 0
          -1.3443940951728619 0.55936585181609388 0
          -1.3399661032785948 0.55285479531959891 0
          -1.3351670807854168 0.54661215796390739 0
          -1.3299815370614405 0.54068666730078652 0
          -1.3244039817423472 0.53512857994151575 0
          -1.3184394560553894 0.52998795443727686 0
          -1.3121036072134051 0.5253126219990264 0
          -1.3054222208628909 0.52114598309045257 0
          -1.2984301662730608 0.51752479078823599 0
          -1.2911697626717058 0.51447709931172259 0
          -1.283688636567679 0.51202055261697443 0
          -1.2760372001312079 0.5101611608089639 0
          -1.2682659298312779 0.50889266301820457 0
          -1.2604226538793775 0.50819651055523873 0
          -1.2525500613237073 0.50804243348031408 0
          -1.2446836244270849 0.50838948872491896 0
          -1.2368500837909311 0.50918743920482123 0
          -1.2290665909052716 0.51037828842540311 0
          -1.2213405453733186 0.5118977968200048 0
          -1.2136701130631864 0.51367683275424603 0
          -1.2060453730205833 0.51564245739963588 0
          -1.1984500172113917 0.51771870112197527 0
          -1.1908635160385752 0.51982705181563293 0
          -1.1832636589048084 0.52188673559666998 0
          -1.1756293760274268 0.5238149213619786 0
          -1.1679437385461078 0.52552701767124355 0
          -1.1601996244730539 0.52695146789468927 0
          -1.1524040648074383 0.52806037914890025 0
          -1.1445674847273721 0.52882753490408607 0
          -1.1367036879682308 0.52922915739068743 0
          -1.1288296518127843 0.52924465327944137 0
          -1.1209651284499209 0.52885730329913494 0
          -1.1131320627907775 0.52805485370203231 0
          -1.1053538518369952 0.5268299692084859 0
          -1.0976544846447249 0.52518051367779961 0
          -1.0900576129916224 0.52310963589452752 0
          -1.0825856094510513 0.52062565236580083 0
          -1.0752586707048815 0.51774173510347765 0
          -1.0680940193865935 0.51447542790631651 0
          -1.0611052482068364 0.51084802762981707 0
          -1.0543018369736814 0.50688387575319305 0
          -1.0476888582267396 0.50260960935611088 0
          -1.0412668724925929 0.49805341934316427 0
          -1.0350320013175267 0.49324435807180461 0
          -1.0289761564175621 0.48821172963624915 0
          -1.0230873970651393 0.48298458536178224 0
          -1.0173503851745582 0.47759133596827752 0
          -1.0117469079568542 0.47205948153384281 0
          -1.0062564407041243 0.46641545164927539 0
          -1.0008567263439556 0.46068454145316273 0
          -0.99552435303447218 0.45489092470424186 0
          -0.99023531555847566 0.44905772257070548 0
          -0.98496555013371934 0.44320710613874142 0
          -0.97969143521208657 0.43736041144587595 0
          -0.97439025281469072 0.43153824780838168 0
          -0.96904060602268949 0.42576058304880965 0
          -0.96362278861008843 0.42004679269613721 0
          -0.95811910273106404 0.41441566412102893 0
          -0.95251412035520755 0.40888535069777082 0
          -0.94679488406471912 0.40347327527179461 0
          -0.94095104312955191 0.39819598626710612 0
          -0.93497492162952389 0.39306897348726383 0
          -0.92886151687393836 0.38810645383552989 0
          -0.92260842845396596 0.38332113960274361 0
          -0.91621572082483727 0.37872400347734836 0
          -0.90968572514210577 0.37432405491245258 0
          -0.90302278889916332 0.37012814191313581 0
          -0.89623298444066235 0.36614079075076661 0
          -0.88932378938613976 0.36236409373026712 0
          -0.88230375317368881 0.35879765216878129 0
          -0.87518216419328287 0.35543857847709898 0
          -0.86796873129115981 0.35228155796877014 0
          -0.86067329185747665 0.34931896803230128 0
          -0.85330555641108874 0.34654104980873079 0
          -0.84587489677982075 0.34393612566078996 0
          -0.83839018188472147 0.34149085455283978 0
          -0.83085966201698103 0.33919051695020086 0
          -0.82329089956870471 0.33701932088995779 0
          -0.81569074162748512 0.33496072132322485 0
          -0.80806532780737872 0.33299774551045824 0
          -0.8004201252562394 0.33111331800033439 0
          -0.79275998199917497 0.32929057939890916 0
          -0.78508918966077723 0.32751319364145876 0
          -0.77741154713331873 0.32576563876803499 0
          -0.76973041787370833 0.32403347628142526 0
          -0.7620487751391698 0.32230359408571196 0
          -0.75436923150053981 0.32056441785226109 0
          -0.74669405126150934 0.31880608554231865 0
          -0.73902514679074882 0.31702057983366261 0
          -0.73136406204677396 0.31520181343350157 0
          -0.72371194853652721 0.31334566275454628 0
          -0.71606954039930615 0.31144994618417515 0
          -0.70843713607938075 0.30951434414221618 0
          -0.70081459402920232 0.30754025922301026 0
          -0.69320134903212571 0.30553061586170732 0
          -0.68559645410199821 0.30348960007496956 0
          -0.67799865065818365 0.30142234085964131 0
          -0.67040646703574747 0.29933453579766528 0
          -0.66281834270249096 0.29723202437322044 0
          -0.65523277321073115 0.29512031356080215 0
          -0.64764846933880871 0.29300406150619135 0
          -0.64006452349699627 0.29088652668978388 0
        </DataArray>
      </Points>
      <Cells>
        <DataArray type="Int32" Name="connectivity" format="ascii">
          0 1 1 2 2 3 3 4 4 5 5 6 6 7 7 8 8 9 9 10 10 11 11 12 12 13 13 14 14 15 15 16 16 17 17 18 18 19 19 20 20 21 21 22 22 23 23 24 24 25 25 26 26 27 27 28 28 29 29 30 30 31 31 32 32 33 33 34 34 35 35 36 36 37 37 38 38 39 39 40 40 41 41 42 42 43 43 44 44 45 45 46 46 47 47 48 48 49 49 50 50 51 51 52 52 53 53 54 54 55 55 56 56 57 57 58 58 59 59 60 60 61 61 62 62 63 63 64 64 65 65 66 66 67 67 68 68 69 69 70 70 71 71 72 72 73 73 74 74 75 75 76 76 77 77 78 78 79 79 80 80 81 81 82 82 83 83 84 84 85 85 86 86 87 87 88 88 89 89 90 90 91 91 92 92 93 93 94 94 95 95 96 96 97 97 98 98 99 99 100 100 101 101 102 102 103 103 104 104 105 105 106 106 107 107 108 108 109 109 110 110 111 111 112 112 113 113 114 114 115 115 116 116 117 117 118 118 119 119 120 120 121 121 122 122 123 123 124 124 125 125 126 126 127 
        </DataArray>
        <DataArray type="Int32" Name="offsets" format="ascii">
          2 4 6 8 10 12 14 16 18 20 22 24 26 28 30 32 34 36 38 40 42 44 46 48 50 52 54 56 58 60 62 64 66 68 70 72 74 76 78 80 82 84 86 88 90 92 94 96 98 100 102 104 106 108 110 112 114 116 118 120 122 124 126 128 130 132 134 136 138 140 142 144 146 148 150 152 154 156 158 160 162 164 166 168 170 172 174 176 178 180 182 184 186 188 190 192 194 196 198 200 202 204 206 208 210 212 214 216 218 220 222 224 226 228 230 232 234 236 238 240 242 244 246 248 250 252 254 
        </DataArray>
        <DataArray type="Int32" Name="types" format="ascii">
          3 3 3 3 3 3 3 3 3 3 3 3 3 3 3 3 3 3 3 3 3 3 3 3 3 3 3 3 3 3 3 3 3 3 3 3 3 3 3 3 3 3 3 3 3 3 3 3 3 3 3 3 3 3 3 3 3 3 3 3 3 3 3 3 3 3 3 3 3 3 3 3 3 3 3 3 3 3 3 3 3 3 3 3 3 3 3 3 3 3 3 3 3 3 3 3 3 3 3 3 3 3 3 3 3 3 3 3 3 3 3 3 3 3 3 3 3 3 3 3 3 3 3 3 3 3 3         </DataArray>
      </Cells>
    </Piece>
  </UnstructuredGrid>
</VTKFile>
<!-- DATA


-->
