<?xml version="1.0"?>
<VTKFile type="UnstructuredGrid" version="0.1" byte_order="LittleEndian">
  <UnstructuredGrid>
    <Piece NumberOfPoints="128" NumberOfCells="127">
      <PointData Scalars="u">
        <DataArray type="Float32" Name="Y" NumberOfComponents="2">

0 0
0.18854480491989833 0.041808225026306947
0.19240247389550047 0.080968290605235055
0.19838973595141926 0.11031926156759839
0.20744795824834272 0.13178352455953754
0.21753414393490891 0.1466468098741642
0.22781643167007296 0.15571591055259926
0.23757517662883265 0.15962940851607929
0.24618184216956071 0.15896203531236233
0.25313728903572769 0.1542833042358889
0.25698918276235561 0.14689215328919941
0.25899946711428162 0.13555406996206548
0.25711008057613949 0.12032345787672744
0.25031997309642284 0.10101592985331305
0.23768000134427469 0.078164973570356691
0.21803949145117593 0.053567047893196114
0.19269626614307464 0.026025306467313648
0.16032952037217107 -0.0032379583621104874
0.12021506691530572 -0.031620619320058184
0.074648915876029662 -0.06064462367143738
0.022525523791993112 -0.086868779920981992
-0.033786469811173128 -0.11182407226395109
-0.094493045002850315 -0.13233947682839114
-0.1569958210115863 -0.15026901992577657
-0.22090304517639237 -0.16257110030380401
-0.28343598787986235 -0.17155368456873357
-0.34379545787731736 -0.17455580710804935
-0.39943431966129478 -0.17437697156451476
-0.44931708054886171 -0.17005503432389216
-0.49078401520825288 -0.16025039255961554
-0.52082196155109484 -0.1486255700433059
-0.53863785457945601 -0.13314428211694132
-0.54367506481524008 -0.11781996512307467
-0.53772913602483119 -0.1019908933620897
-0.52169232619782713 -0.086654516940758833
-0.49628989833690063 -0.072403798307958317
-0.46213001279025706 -0.059694187358815806
-0.41955804348216924 -0.048602378427856738
-0.36868483576302252 -0.039247253152525231
-0.30972407849830857 -0.031506725904662643
-0.24305982463602965 -0.025058865924882923
-0.16902743851765467 -0.019469364244630607
-0.088092311320722275 -0.014136259277373527
-0.0012518558824645741 -0.008209716529952225
0.090241159092156867 -0.0010366825606921151
0.18467517309645012 0.0084656773014693178
0.28000259811004263 0.020773250365440157
0.37353719849140116 0.03687567712493154
0.46224987962342312 0.056877548355575902
0.54324789789436723 0.080280058580289984
0.61326057923818078 0.10712457588921455
0.66961143644307419 0.1357836001555732
0.71055282824369137 0.16468131976539208
0.73581546808898035 0.19200766330382776
0.74984458585103375 0.21033247636261379
0.74393896204515364 0.22878689591607007
0.72416855336885244 0.22555875613520515
0.6600611241262071 0.23308042377418384
0.57903107689266675 0.22733795246160921
0.49615029109264863 0.20304743592200791
0.41518595085470483 0.16458188439663435
0.34112412246685458 0.11327806296006303
0.27407665014203597 0.052799399310916303
0.2183326236662321 -0.016527958977663085
0.16958594144802314 -0.090690844448098745
0.13289065214204621 -0.17039747850409234
0.10673781910847727 -0.25235364877141131
0.09133258319322908 -0.33444924968042761
0.08623799506011709 -0.41464792206435824
0.090817090455097033 -0.49117825167111434
0.10545840362297992 -0.56265448580584232
0.12687412082818017 -0.62844085893171187
0.15501178736144139 -0.68932365346120694
0.1889614946064728 -0.746220995390384
0.22839296841531651 -0.8001210346460127
0.27293491861504304 -0.85203974299524932
0.32254117646545039 -0.90299924686197808
0.37737340485436216 -0.95395223839611898
0.43775603592826762 -1.0057142705544224
0.50412412361663494 -1.0589130668337374
0.57696096575078304 -1.1139653466631996
0.65803702913643014 -1.1705121094571116
0.74633603945046179 -1.2303467251191893
0.84396327675168037 -1.2947259278732413
0.95245078176766362 -1.3649337723160342
1.0733481526182886 -1.4419844034166251
1.2081281220907647 -1.5266247675850912
1.3580720096010463 -1.6193431632479443
1.5241470299335287 -1.7203857935446816
1.7068864084306503 -1.8297810614462551
1.9062752772298619 -1.9473816275255351
2.1216738017827481 -2.0729075396851933
2.3517487799517731 -2.2060405303709372
2.5945008806938152 -2.346471309480866
2.847316403629033 -2.4939800459248289
3.1071057312554635 -2.6485225291397696
3.3705139334418446 -2.8103289992910003
3.6341993965076904 -2.9800172011828305
3.8951575982609574 -3.1587367110702216
4.1510611056948781 -3.3483500343914314
4.4005679477400887 -3.5516537641842829
4.6424540510816898 -3.7739752525147798
4.8762459209949292 -4.020318339857174
5.1032700950717809 -4.2944878233439923
5.3233757554035606 -4.6048332926068891
5.5354446298691702 -4.9601096370712119
5.7384514637328961 -5.3677072045633025
5.9255915955902871 -5.837393394998994
6.0902239631207351 -6.3729455348364237
6.2175198714278919 -6.9797396780551972
6.2846313425130935 -7.6576865909098348
6.2693569419609005 -8.3918494197075848
6.1439017078424936 -9.158160440078511
5.8811845252061534 -9.9179057177996874
5.4645297036029801 -10.614245071790272
4.8943565969128322 -11.177848646327421
4.1836148348811921 -11.534886413539136
3.3797659108709395 -11.610605095027324
2.5389487720158392 -11.34830263548146
1.7351618931955402 -10.714671060916295
1.0366825371965711 -9.7102231251916926
0.49988135655568539 -8.374117391592689
0.13917118322532018 -6.7828385249382732
-0.044113609358659732 -5.0453900239977552
-0.15001650914014475 -3.2821510606980002
-0.10027624689277788 -1.6826584220383516
-0.029444545518621235 -0.49558047081426054
0 0

        </DataArray>
        <DataArray type="Float32" Name="W" NumberOfComponents="2">

-35.468287622596328 11.319672593668274
-35.460415706743412 11.319406687516919
-35.452573425010797 11.318674966568976
-35.444787081513311 11.317488090277996
-35.437080863526326 11.315860508882462
-35.429477723261108 11.313804768952133
-35.421999125558422 11.311334268197728
-35.414665055835627 11.308463169641536
-35.407494027924429 11.305206310320891
-35.400503083585328 11.30157912677684
-35.393707821348841 11.297597523451749
-35.387120521897032 11.293280671288738
-35.380753579628156 11.288645075711782
-35.374618083115664 11.283707327528122
-35.368724095191908 11.278483769565316
-35.363080296685155 11.272990940867169
-35.357691259589132 11.267248043998748
-35.352563100837166 11.261271127642516
-35.347701269524563 11.255075718476672
-35.343105847273584 11.248680288484627
-35.338780022861741 11.242099588991884
-35.334721404809308 11.23535089356395
-35.330930542174059 11.228448318932227
-35.327402111059222 11.221408061061956
-35.324134326816953 11.214243179810069
-35.321118814589518 11.206968602084464
-35.31835118738762 11.199596228270824
-35.315819825051229 11.192139506102505
-35.313517566839039 11.184608970669711
-35.311436658975779 11.177014363772102
-35.309559540526607 11.169366911076018
-35.307875233584348 11.161674763997135
-35.30636197472645 11.153947216057379
-35.305005397880933 11.146190693464085
-35.303788892126541 11.138411032440285
-35.302694571045933 11.130613299798888
-35.3017031867019 11.122801859220791
-35.300795171130744 11.114980327133344
-35.299948932230819 11.107151897912336
-35.299141598993067 11.099319376707157
-35.298349200909826 11.091485332990269
-35.297547575083321 11.083652215629071
-35.296710357945784 11.075822793061404
-35.295810063235642 11.06800032481817
-35.294819368562671 11.060188722452821
-35.293708953229093 11.052393146736959
-35.292449894192863 11.04462007887439
-35.291011429085572 11.036878061644257
-35.289363760816542 11.02917768268985
-35.287477370186977 11.02153207781936
-35.285321767050014 11.013957732370789
-35.282868951452635 11.006474075142648
-35.280092458712737 10.999104059959391
-35.276968052737153 10.991874314241587
-35.27347391609522 10.984815440218828
-35.269574966028451 10.977971394034423
-35.265257226679772 10.971383044304261
-35.260511997785422 10.965095051608172
-35.25535300717155 10.959142050201104
-35.249810438344319 10.953544649394972
-35.24391393599543 10.948321622415031
-35.237695189441922 10.943486964838682
-35.231184387398045 10.939053645960271
-35.224413140398148 10.935029553371585
-35.217409873278861 10.931424594594342
-35.21020601445089 10.9282395792674
-35.202829765624244 10.925477448734975
-35.195308554147758 10.923138993949705
-35.187668739261078 10.92122356331692
-35.179935645628568 10.919729029689622
-35.172133522482447 10.918651983421229
-35.16428526899076 10.917990972675364
-35.156413278172842 10.917740584609398
-35.1485388746719 10.917894406799237
-35.140682287180539 10.918444782432092
-35.13286264217129 10.919383420566124
-35.125097942474781 10.920701125463649
-35.117405024305313 10.922387818140729
-35.109799504225144 10.924432564085221
-35.10229571872113 10.926823609546023
-35.094906662984542 10.929548437760367
-35.087643929997192 10.932593833952737
-35.080519197705563 10.935949244742766
-35.073541378707766 10.9396001958377
-35.066717721299767 10.943531589500957
-35.060053712230079 10.947727759112919
-35.053552966851264 10.952172510355975
-35.047217129463959 10.956849183368128
-35.041045790686589 10.961740732028513
-35.035036428187411 10.966829815729909
-35.029184385812954 10.972098908765933
-35.023482887827917 10.977530409731031
-35.017923123746129 10.983106777563505
-35.012494311655274 10.988810590720103
-35.00718387573734 10.994624666048082
-35.001977643866852 11.000532134576357
-34.996860077633784 11.006516491974461
-34.991814516677685 11.01256161391168
-34.98682342969019 11.018651738795922
-34.981868634843032 11.024771397062169
-34.976931476116341 11.030905286298104
-34.97199293134549 11.037038079092797
-34.967029709294252 11.0431509655188
-34.962022058452938 11.04922758699403
-34.956949937195013 11.055250608840181
-34.951788815106376 11.061197684995562
-34.94651824666439 11.067048159275341
-34.941112932821333 11.072774581663994
-34.935551751672278 11.078349998489763
-34.929814024239249 11.083743828015898
-34.923876302713467 11.088916976070232
-34.917721452868022 11.093830119780478
-34.911336733780459 11.098440939687661
-34.904714824099884 11.102704464149202
-34.897856269400606 11.106576206381126
-34.890773125959406 11.110020297779451
-34.88348310621889 11.113001994413048
-34.876015040170628 11.115504940834439
-34.868401450878494 11.117522751057409
-34.860678104600993 11.119068563649124
-34.852879007217503 11.120170796589589
-34.845034403457873 11.120880922702861
-34.837166415000532 11.121252921731243
-34.82929007697787 11.121347595683654
-34.821415066740691 11.121165749434203
-34.813542022049077 11.120906887267946
-34.805669167499182 11.120635352547664
-34.797796234304002 11.120357502904001

        </DataArray>
        <DataArray type="Float32" Name="u" NumberOfComponents="1">
          0 0.007874015748031496 0.015748031496062992 0.023622047244094488 0.031496062992125984 0.03937007874015748 0.047244094488188976 0.055118110236220472 0.062992125984251968 0.070866141732283464 0.07874015748031496 0.086614173228346455 0.094488188976377951 0.10236220472440945 0.11023622047244094 0.11811023622047244 0.12598425196850394 0.13385826771653545 0.14173228346456693 0.14960629921259844 0.15748031496062992 0.16535433070866143 0.17322834645669291 0.18110236220472442 0.1889763779527559 0.19685039370078741 0.20472440944881889 0.2125984251968504 0.22047244094488189 0.2283464566929134 0.23622047244094488 0.24409448818897639 0.25196850393700787 0.25984251968503935 0.26771653543307089 0.27559055118110237 0.28346456692913385 0.29133858267716534 0.29921259842519687 0.30708661417322836 0.31496062992125984 0.32283464566929132 0.33070866141732286 0.33858267716535434 0.34645669291338582 0.3543307086614173 0.36220472440944884 0.37007874015748032 0.37795275590551181 0.38582677165354329 0.39370078740157483 0.40157480314960631 0.40944881889763779 0.41732283464566927 0.42519685039370081 0.43307086614173229 0.44094488188976377 0.44881889763779526 0.45669291338582679 0.46456692913385828 0.47244094488188976 0.48031496062992124 0.48818897637795278 0.49606299212598426 0.50393700787401574 0.51181102362204722 0.51968503937007871 0.52755905511811019 0.53543307086614178 0.54330708661417326 0.55118110236220474 0.55905511811023623 0.56692913385826771 0.57480314960629919 0.58267716535433067 0.59055118110236215 0.59842519685039375 0.60629921259842523 0.61417322834645671 0.62204724409448819 0.62992125984251968 0.63779527559055116 0.64566929133858264 0.65354330708661412 0.66141732283464572 0.6692913385826772 0.67716535433070868 0.68503937007874016 0.69291338582677164 0.70078740157480313 0.70866141732283461 0.71653543307086609 0.72440944881889768 0.73228346456692917 0.74015748031496065 0.74803149606299213 0.75590551181102361 0.76377952755905509 0.77165354330708658 0.77952755905511806 0.78740157480314965 0.79527559055118113 0.80314960629921262 0.8110236220472441 0.81889763779527558 0.82677165354330706 0.83464566929133854 0.84251968503937003 0.85039370078740162 0.8582677165354331 0.86614173228346458 0.87401574803149606 0.88188976377952755 0.88976377952755903 0.89763779527559051 0.90551181102362199 0.91338582677165359 0.92125984251968507 0.92913385826771655 0.93700787401574803 0.94488188976377951 0.952755905511811 0.96062992125984248 0.96850393700787396 0.97637795275590555 0.98425196850393704 0.99212598425196852 1
        </DataArray>
      </PointData>
      <CellData Scalars="P">
        <DataArray type="Float32" Name="P" NumberOfComponents="1">
          0.026201026521856741 0.18984465929706507 0.42780283927094243 0.71038939952738756 1.0276390225916592 1.3720895759043583 1.738662700506947 2.1236643166872042 2.5239923955106405 2.9366641646283935 3.3550033161856669 3.789035277477538 4.2441021499246023 4.7235207034024906 5.2257853909219278 5.7408333143378227 6.2770076729271942 6.8330430467095225 7.3916832209918244 7.96013873169949 8.5204609148420278 9.0777857096516978 9.6129057165333922 10.131354825301994 10.612786807848837 11.063400073511593 11.464450685011011 11.824381924703571 12.137968093153395 12.386036008418442 12.580473942361547 12.715829011132445 12.810549866040535 12.873418536338566 12.913006233687193 12.937610300658401 12.955148117334531 12.973978454508382 13.003004946895846 13.051689423161962 13.128797023014855 13.245804021002835 13.413071443138096 13.637778198989963 13.929649208940146 14.291359782219953 14.727397856238881 15.231435140239144 15.794640464087124 16.407852127425386 17.049303665687862 17.699500634647912 18.341556760992113 18.966930995192161 19.600074212113118 20.14898141823042 20.550382110110522 20.740251078685144 20.79514312180056 20.768637905434879 20.691283165921007 20.585610773317327 20.462684155899488 20.333130750456409 20.19579706062672 20.061212579406156 19.93832207871472 19.834584179801631 19.755838996222078 19.706587971516484 19.689412494832712 19.696113855251202 19.717473507191528 19.744053515490769 19.767378099012326 19.77923369717039 19.772018863086188 19.739086588708709 19.675035005806983 19.575909931203537 19.439270715755828 19.26136931202501 19.033914503687399 18.749165300361177 18.402001530424933 17.990273356509068 17.515177623726462 16.981597932510645 16.398321795917454 15.778013182337324 15.136911919174844 14.494043409325553 13.870511590976006 13.287941811055276 12.767152914837471 12.32678257784635 11.982254064001447 11.7452662881237 11.624208591798274 11.625522762710583 11.756152176452934 12.055064161111643 12.511814891512184 13.151014844803326 14.046458934425125 15.210793971399628 16.75526112099741 18.706438371674288 21.130421418035692 24.13590424351413 27.664073422278776 31.615110793986581 35.782527205153592 39.799804033983989 43.119362118786945 45.220377497031045 45.508612858882671 43.603126704681522 39.407352679773204 33.187238137886112 25.741099291215697 17.855962982840168 10.499010343456554 2.7422165021133242 0.54811352322419038 0.13722492234905256 -0.026964104764218674
        </DataArray>
      </CellData>
      <Points>
        <DataArray type="Float32" NumberOfComponents="3" format="ascii">
          -35.468287622596328 11.319672593668274 0
          -35.460415706743412 11.319406687516919 0
          -35.452573425010797 11.318674966568976 0
          -35.444787081513311 11.317488090277996 0
          -35.437080863526326 11.315860508882462 0
          -35.429477723261108 11.313804768952133 0
          -35.421999125558422 11.311334268197728 0
          -35.414665055835627 11.308463169641536 0
          -35.407494027924429 11.305206310320891 0
          -35.400503083585328 11.30157912677684 0
          -35.393707821348841 11.297597523451749 0
          -35.387120521897032 11.293280671288738 0
          -35.380753579628156 11.288645075711782 0
          -35.374618083115664 11.283707327528122 0
          -35.368724095191908 11.278483769565316 0
          -35.363080296685155 11.272990940867169 0
          -35.357691259589132 11.267248043998748 0
          -35.352563100837166 11.261271127642516 0
          -35.347701269524563 11.255075718476672 0
          -35.343105847273584 11.248680288484627 0
          -35.338780022861741 11.242099588991884 0
          -35.334721404809308 11.23535089356395 0
          -35.330930542174059 11.228448318932227 0
          -35.327402111059222 11.221408061061956 0
          -35.324134326816953 11.214243179810069 0
          -35.321118814589518 11.206968602084464 0
          -35.31835118738762 11.199596228270824 0
          -35.315819825051229 11.192139506102505 0
          -35.313517566839039 11.184608970669711 0
          -35.311436658975779 11.177014363772102 0
          -35.309559540526607 11.169366911076018 0
          -35.307875233584348 11.161674763997135 0
          -35.30636197472645 11.153947216057379 0
          -35.305005397880933 11.146190693464085 0
          -35.303788892126541 11.138411032440285 0
          -35.302694571045933 11.130613299798888 0
          -35.3017031867019 11.122801859220791 0
          -35.300795171130744 11.114980327133344 0
          -35.299948932230819 11.107151897912336 0
          -35.299141598993067 11.099319376707157 0
          -35.298349200909826 11.091485332990269 0
          -35.297547575083321 11.083652215629071 0
          -35.296710357945784 11.075822793061404 0
          -35.295810063235642 11.06800032481817 0
          -35.294819368562671 11.060188722452821 0
          -35.293708953229093 11.052393146736959 0
          -35.292449894192863 11.04462007887439 0
          -35.291011429085572 11.036878061644257 0
          -35.289363760816542 11.02917768268985 0
          -35.287477370186977 11.02153207781936 0
          -35.285321767050014 11.013957732370789 0
          -35.282868951452635 11.006474075142648 0
          -35.280092458712737 10.999104059959391 0
          -35.276968052737153 10.991874314241587 0
          -35.27347391609522 10.984815440218828 0
          -35.269574966028451 10.977971394034423 0
          -35.265257226679772 10.971383044304261 0
          -35.260511997785422 10.965095051608172 0
          -35.25535300717155 10.959142050201104 0
          -35.249810438344319 10.953544649394972 0
          -35.24391393599543 10.948321622415031 0
          -35.237695189441922 10.943486964838682 0
          -35.231184387398045 10.939053645960271 0
          -35.224413140398148 10.935029553371585 0
          -35.217409873278861 10.931424594594342 0
          -35.21020601445089 10.9282395792674 0
          -35.202829765624244 10.925477448734975 0
          -35.195308554147758 10.923138993949705 0
          -35.187668739261078 10.92122356331692 0
          -35.179935645628568 10.919729029689622 0
          -35.172133522482447 10.918651983421229 0
          -35.16428526899076 10.917990972675364 0
          -35.156413278172842 10.917740584609398 0
          -35.1485388746719 10.917894406799237 0
          -35.140682287180539 10.918444782432092 0
          -35.13286264217129 10.919383420566124 0
          -35.125097942474781 10.920701125463649 0
          -35.117405024305313 10.922387818140729 0
          -35.109799504225144 10.924432564085221 0
          -35.10229571872113 10.926823609546023 0
          -35.094906662984542 10.929548437760367 0
          -35.087643929997192 10.932593833952737 0
          -35.080519197705563 10.935949244742766 0
          -35.073541378707766 10.9396001958377 0
          -35.066717721299767 10.943531589500957 0
          -35.060053712230079 10.947727759112919 0
          -35.053552966851264 10.952172510355975 0
          -35.047217129463959 10.956849183368128 0
          -35.041045790686589 10.961740732028513 0
          -35.035036428187411 10.966829815729909 0
          -35.029184385812954 10.972098908765933 0
          -35.023482887827917 10.977530409731031 0
          -35.017923123746129 10.983106777563505 0
          -35.012494311655274 10.988810590720103 0
          -35.00718387573734 10.994624666048082 0
          -35.001977643866852 11.000532134576357 0
          -34.996860077633784 11.006516491974461 0
          -34.991814516677685 11.01256161391168 0
          -34.98682342969019 11.018651738795922 0
          -34.981868634843032 11.024771397062169 0
          -34.976931476116341 11.030905286298104 0
          -34.97199293134549 11.037038079092797 0
          -34.967029709294252 11.0431509655188 0
          -34.962022058452938 11.04922758699403 0
          -34.956949937195013 11.055250608840181 0
          -34.951788815106376 11.061197684995562 0
          -34.94651824666439 11.067048159275341 0
          -34.941112932821333 11.072774581663994 0
          -34.935551751672278 11.078349998489763 0
          -34.929814024239249 11.083743828015898 0
          -34.923876302713467 11.088916976070232 0
          -34.917721452868022 11.093830119780478 0
          -34.911336733780459 11.098440939687661 0
          -34.904714824099884 11.102704464149202 0
          -34.897856269400606 11.106576206381126 0
          -34.890773125959406 11.110020297779451 0
          -34.88348310621889 11.113001994413048 0
          -34.876015040170628 11.115504940834439 0
          -34.868401450878494 11.117522751057409 0
          -34.860678104600993 11.119068563649124 0
          -34.852879007217503 11.120170796589589 0
          -34.845034403457873 11.120880922702861 0
          -34.837166415000532 11.121252921731243 0
          -34.82929007697787 11.121347595683654 0
          -34.821415066740691 11.121165749434203 0
          -34.813542022049077 11.120906887267946 0
          -34.805669167499182 11.120635352547664 0
          -34.797796234304002 11.120357502904001 0
        </DataArray>
      </Points>
      <Cells>
        <DataArray type="Int32" Name="connectivity" format="ascii">
          0 1 1 2 2 3 3 4 4 5 5 6 6 7 7 8 8 9 9 10 10 11 11 12 12 13 13 14 14 15 15 16 16 17 17 18 18 19 19 20 20 21 21 22 22 23 23 24 24 25 25 26 26 27 27 28 28 29 29 30 30 31 31 32 32 33 33 34 34 35 35 36 36 37 37 38 38 39 39 40 40 41 41 42 42 43 43 44 44 45 45 46 46 47 47 48 48 49 49 50 50 51 51 52 52 53 53 54 54 55 55 56 56 57 57 58 58 59 59 60 60 61 61 62 62 63 63 64 64 65 65 66 66 67 67 68 68 69 69 70 70 71 71 72 72 73 73 74 74 75 75 76 76 77 77 78 78 79 79 80 80 81 81 82 82 83 83 84 84 85 85 86 86 87 87 88 88 89 89 90 90 91 91 92 92 93 93 94 94 95 95 96 96 97 97 98 98 99 99 100 100 101 101 102 102 103 103 104 104 105 105 106 106 107 107 108 108 109 109 110 110 111 111 112 112 113 113 114 114 115 115 116 116 117 117 118 118 119 119 120 120 121 121 122 122 123 123 124 124 125 125 126 126 127 
        </DataArray>
        <DataArray type="Int32" Name="offsets" format="ascii">
          2 4 6 8 10 12 14 16 18 20 22 24 26 28 30 32 34 36 38 40 42 44 46 48 50 52 54 56 58 60 62 64 66 68 70 72 74 76 78 80 82 84 86 88 90 92 94 96 98 100 102 104 106 108 110 112 114 116 118 120 122 124 126 128 130 132 134 136 138 140 142 144 146 148 150 152 154 156 158 160 162 164 166 168 170 172 174 176 178 180 182 184 186 188 190 192 194 196 198 200 202 204 206 208 210 212 214 216 218 220 222 224 226 228 230 232 234 236 238 240 242 244 246 248 250 252 254 
        </DataArray>
        <DataArray type="Int32" Name="types" format="ascii">
          3 3 3 3 3 3 3 3 3 3 3 3 3 3 3 3 3 3 3 3 3 3 3 3 3 3 3 3 3 3 3 3 3 3 3 3 3 3 3 3 3 3 3 3 3 3 3 3 3 3 3 3 3 3 3 3 3 3 3 3 3 3 3 3 3 3 3 3 3 3 3 3 3 3 3 3 3 3 3 3 3 3 3 3 3 3 3 3 3 3 3 3 3 3 3 3 3 3 3 3 3 3 3 3 3 3 3 3 3 3 3 3 3 3 3 3 3 3 3 3 3 3 3 3 3 3 3         </DataArray>
      </Cells>
    </Piece>
  </UnstructuredGrid>
</VTKFile>
<!-- DATA


-->
