<?xml version="1.0"?>
<VTKFile type="UnstructuredGrid" version="0.1" byte_order="LittleEndian">
  <UnstructuredGrid>
    <Piece NumberOfPoints="128" NumberOfCells="127">
      <PointData Scalars="u">
        <DataArray type="Float32" Name="Y" NumberOfComponents="2">

0 0
0.0071134734989697608 -0.0016755526565064099
0.024819026992886187 0.0027948741515213499
0.048161616004850499 0.011105963942619779
0.072506416602505494 0.02243552401028347
0.094139794989913428 0.035623955583711481
0.11029514140248468 0.049115659049930774
0.11918573933987733 0.061000219255196379
0.12002187414855509 0.069140384048285958
0.11298817423210175 0.071364891703876651
0.099161827581092862 0.065696056071949491
0.080362143228024097 0.050576774764083593
0.058935007665106627 0.025061197138457125
0.03748927111557792 -0.011061324592221483
0.018612880726595324 -0.057228582833157897
0.0046021052941286767 -0.11215938965534689
-0.0027638037495293778 -0.17398916242483992
-0.0023773511775774824 -0.24046475244579657
0.0061266974200308993 -0.30916825741095183
0.02238553430877881 -0.37773782699838554
0.045395822526060385 -0.44405752614499083
0.073654587386734194 -0.5063966458694027
0.10532962355295873 -0.56348923730155298
0.13843606462187891 -0.61455483321541893
0.17099970601692968 -0.65926953935978827
0.20119352078695441 -0.69770192057585534
0.22743998538331639 -0.73023015674406044
0.24847708649103373 -0.75745618460934738
0.2633894698248706 -0.78012968226036816
0.27160794517101494 -0.79909055973299759
0.27288078284306488 -0.81523374341123878
0.26721958907321164 -0.8294949556557214
0.25482188146491364 -0.84285124004696166
0.2359726862080633 -0.85632550137255214
0.21092929622149026 -0.87098077932887608
0.17979719607520289 -0.8878880400724789
0.14241100726539782 -0.90805185490871743
0.098241395965217609 -0.93228242921786386
0.04635570970461074 -0.96101083212146232
-0.014535534149931159 -0.99405712983045513
-0.085914917985210379 -1.0303775548210565
-0.16915406311924136 -1.0678345456553546
-0.26506356272827036 -1.1030486583622665
-0.3733174501615249 -1.13139900025509
-0.49180480211024319 -1.1472337038729707
-0.615992997742139 -1.1443299045353319
-0.73841038686754479 -1.1166024451920502
-0.84836106193949967 -1.0590053280471319
-0.93196306743910429 -0.96850826323648953
-0.97255061262447284 -0.84497551749615418
-0.95140552729444483 -0.69174023738737411
-0.83805107542227109 -0.53235352448068674
-0.62600110361453543 -0.39169041405976163
-0.36103762590192462 -0.22360793716509186
-0.054378243627500211 -0.033534078845827535
0.28303831341007746 0.17496159336490541
0.64057839808144335 0.39977811656841039
1.0079499724617855 0.63984895008606446
1.3752454647007728 0.89469525343775136
1.7329958266870038 1.1639928944226465
2.0722445270776086 1.4471753060525818
2.3846499529950562 1.7430913301534534
2.6626212295487739 2.0497348858084292
2.8994867642965385 2.3640610013066259
3.0896879127785795 2.6818997140490799
3.2289831516173479 2.9979749597694796
3.314642200796527 3.3060295241882995
3.3456057820883771 3.5990495328464953
3.3225860592278265 3.8695734232204009
3.248085812691599 4.1100619313288087
3.1263210246751587 4.3132986637483652
2.9630411083906409 4.4727866408847952
2.7652522269454516 4.5831058008541685
2.5408603273698369 4.6402002656765404
2.2982599027079882 4.6415718660513949
2.045900608471158 4.5863669482142493
1.791865812543022 4.475355271462333
1.5434948237383275 4.3108110785993361
1.3070745508694372 4.0963155825921174
1.087617884020307 3.8365060358452285
0.88873662746572613 3.5367987545219854
0.71260777719227342 3.2031121334822994
0.56002444251741679 2.8416115100702699
0.43051742962495038 2.4584917277054905
0.32253062215290312 2.0598065014487719
0.23363259013724041 1.6513471690166317
0.1607478458275986 1.238567852303776
0.10039323849802705 0.82654989915847754
0.048907557196946276 0.41999589415569
0.0026650162265661219 0.023242476341269254
-0.04173437277934678 -0.35971851029943702
-0.08730263008598646 -0.72521965460571391
-0.13653343402532797 -1.0699054134840638
-0.19130596024122293 -1.3907317925807268
-0.2528243306634041 -1.6849800032390538
-0.32159305400910093 -1.9502832235483962
-0.39742771765391971 -2.1846633400772006
-0.47949891204744072 -2.3865728446110626
-0.56640596699765522 -2.5549360489495703
-0.65627565616539418 -2.6891835343495423
-0.7468797347940731 -2.7892742645092397
-0.83576419095521504 -2.8557009718391271
-0.92038256372027338 -2.889476111544635
-0.99822572106444452 -2.8920976449012739
-1.0669411244547007 -2.8654959159724878
-1.1244357862895225 -2.8119646874480395
-1.1689587274346944 -2.7340808057330381
-1.1991605841040247 -2.6346178463370893
-1.2141298986381008 -2.5164593986368686
-1.2134073596757691 -2.3825174153192008
-1.1969806759215165 -2.2356603689514629
-1.1652637675342845 -2.0786549596140182
-1.1190644895655046 -1.9141239532097545
-1.0595451766711645 -1.7445215363077315
-0.98817996856117707 -1.5721264628204128
-0.90671223447371818 -1.3990523085071898
-0.817114564130342 -1.2272733715216608
-0.72155284681544218 -1.0586641477804863
-0.62235502398770626 -0.89504982887278495
-0.52198427473251419 -0.73826485575518674
-0.42301576325508627 -0.59021614794494237
-0.3281157201074083 -0.45294715436402166
-0.24002160249852528 -0.32869829803946687
-0.16152242485840509 -0.21995869824904035
-0.095439073660110146 -0.12950327397624917
-0.044605479363184035 -0.060408519851822835
-0.011852794017218388 -0.016039495686898067
0 0

        </DataArray>
        <DataArray type="Float32" Name="W" NumberOfComponents="2">

-1.7506447188715044 0.77564428797710772
-1.7479763719605173 0.76823617852962589
-1.7450682737739973 0.76091885800897896
-1.7418747817971689 0.75372150455515408
-1.7383552530898667 0.74667783412178446
-1.734475401808131 0.7398260294722977
-1.7302085451199067 0.73320828749524725
-1.7255366657930802 0.72686997385334018
-1.7204512107874634 0.7208584083569235
-1.7149535464779895 0.71522133944477562
-1.7090550040520551 0.71000519822544461
-1.7027764727288885 0.70525324773719378
-1.6961475314117074 0.70100375778192847
-1.6892051472400025 0.6972883373044827
-1.6819920072783276 0.69413054394619678
-1.6745545821191561 0.69154486523691372
-1.6669410431087972 0.68953613095841437
-1.6591991653736122 0.68809937599687343
-1.6513743459529131 0.68722013263144144
-1.6435078512770067 0.68687509557984328
-1.6356353837728683 0.68703307613362208
-1.6277860273803249 0.68765614573675282
-1.6199816003498435 0.68870086506010075
-1.612236414589961 0.69011950110861064
-1.6045574168301553 0.69186115009876337
-1.5969446695546508 0.6938727050160558
-1.589392119409949 0.6960996309871007
-1.5818885969107739 0.69848653619216883
-1.5744189923381453 0.70097754881085705
-1.5669655569223397 0.70351652985212154
-1.5595092838660238 0.70604716667812062
-1.5520313288542695 0.70851300209254264
-1.5445144332138194 0.7108574588971015
-1.5369443141575274 0.71302391993639824
-1.5293109854763178 0.7149559191169913
-1.5216099690270366 0.71659749007457252
-1.5138433532235713 0.71789370654449658
-1.5060206505508074 0.71879143264518464
-1.4981594030826269 0.71924028291369302
-1.4902854842700128 0.71919377186943856
-1.4824330479171821 0.71861061208219712
-1.4746440821270304 0.71745609926243725
-1.466967537676912 0.71570350398912463
-1.459458017108515 0.71333537372977829
-1.4521740327540549 0.71034463740816189
-1.4451758684473457 0.70673539982315114
-1.4385231095287372 0.70252331682615565
-1.4322719367072696 0.69773545644760782
-1.4264723079748893 0.69240957784851231
-1.4211651745201233 0.68659279977584542
-1.416379886195372 0.68033968215805085
-1.4121319344901808 0.6737098054641758
-1.4079359440428247 0.66704692553537004
-1.4037787674174143 0.66035976321571022
-1.3996439765450457 0.65365873930747986
-1.3955125582244383 0.64695563804694955
-1.3913635923264058 0.64026338580356001
-1.3871749110787801 0.63359592083345273
-1.3829237371688539 0.62696812716756445
-1.3785872980078633 0.62039580493716662
-1.3741434128074252 0.61389565029102322
-1.3695710478816239 0.60748522028089691
-1.3648508338268182 0.60118286150118294
-1.3599655361589724 0.59500758572144241
-1.3549004689589408 0.58897888110502572
-1.349643839518156 0.58311645367474974
-1.3441870113252383 0.57743990019602343
-1.3385246733567528 0.57196832022392319
-1.3326549057655981 0.5667198812324693
-1.3265791357380818 0.56171135598274846
-1.3203019823292836 0.55695765506996076
-1.3138309950751588 0.55247137948625369
-1.3071762975263979 0.5482624177867742
-1.3003501528581367 0.54433761002606984
-1.2933664736879351 0.54070049627711925
-1.2862403015999044 0.53735116173295427
-1.2789872832463172 0.53428618377377546
-1.2716231691583755 0.53149867969144193
-1.2641633586896912 0.5289784476972923
-1.2566225102110899 0.52671218896650474
-1.2490142302981797 0.52468379515995955
-1.2413508497904397 0.52287468424959693
-1.2336432888127595 0.52126416747271431
-1.225901007602028 0.51982983159546892
-1.2181320356000571 0.51854792300355956
-1.2103430679385396 0.51739372304014575
-1.2025396161955491 0.51634190707334715
-1.1947261990850082 0.51536688265344999
-1.1869065584220495 0.51444310455560271
-1.1790838861283952 0.51354536633725101
-1.1712610490412718 0.51264906920570874
-1.1634407997224832 0.51173046950791723
-1.1556259632128016 0.51076690610553865
-1.1478195916482656 0.50973700841498026
-1.1400250807761858 0.5086208851325873
-1.1322462446164623 0.50740029279853027
-1.1244873467453014 0.50605878254026926
-1.1167530888640322 0.50458182271748542
-1.1090485593762043 0.50295689487059136
-1.1013791465445799 0.50117356041708661
-1.0937504223477807 0.49922349595940207
-1.086168004324138 0.49710049583272237
-1.0786374034166621 0.49480044155838154
-1.0711638660852998 0.49232123907332548
-1.0637522187332142 0.48966272585686804
-1.0564067218420163 0.48682655124833668
-1.0491309401998024 0.48381603423149938
-1.0419276343347676 0.48063600366678916
-1.0347986768503277 0.47729262632566299
-1.0277449959119311 0.47379322810384172
-1.0207665467684788 0.47014611347616259
-1.013862310990425 0.466360387647689
-1.007030322134215 0.46244578501546707
-1.0002677158316506 0.45841250655511379
-0.99357080185763602 0.45427106766027564
-0.98693515553018019 0.45003215685980319
-0.98035572580267905 0.44570650477670964
-0.97382695756768101 0.44130476172287253
-0.96734292594485272 0.43683738148176987
-0.96089748061569513 0.43231450814815436
-0.95448439854245792 0.42774586239414364
-0.94809754362961618 0.42314062324138307
-0.94173103203102326 0.41850730136806202
-0.93537940187280721 0.41385360020321899
-0.9290377861726673 0.40918626160162375
-0.92270208773527163 0.40451089379893257
-0.91636915485658865 0.399831780669123
-0.91003695685628661 0.395151673090962

        </DataArray>
        <DataArray type="Float32" Name="u" NumberOfComponents="1">
          0 0.007874015748031496 0.015748031496062992 0.023622047244094488 0.031496062992125984 0.03937007874015748 0.047244094488188976 0.055118110236220472 0.062992125984251968 0.070866141732283464 0.07874015748031496 0.086614173228346455 0.094488188976377951 0.10236220472440945 0.11023622047244094 0.11811023622047244 0.12598425196850394 0.13385826771653545 0.14173228346456693 0.14960629921259844 0.15748031496062992 0.16535433070866143 0.17322834645669291 0.18110236220472442 0.1889763779527559 0.19685039370078741 0.20472440944881889 0.2125984251968504 0.22047244094488189 0.2283464566929134 0.23622047244094488 0.24409448818897639 0.25196850393700787 0.25984251968503935 0.26771653543307089 0.27559055118110237 0.28346456692913385 0.29133858267716534 0.29921259842519687 0.30708661417322836 0.31496062992125984 0.32283464566929132 0.33070866141732286 0.33858267716535434 0.34645669291338582 0.3543307086614173 0.36220472440944884 0.37007874015748032 0.37795275590551181 0.38582677165354329 0.39370078740157483 0.40157480314960631 0.40944881889763779 0.41732283464566927 0.42519685039370081 0.43307086614173229 0.44094488188976377 0.44881889763779526 0.45669291338582679 0.46456692913385828 0.47244094488188976 0.48031496062992124 0.48818897637795278 0.49606299212598426 0.50393700787401574 0.51181102362204722 0.51968503937007871 0.52755905511811019 0.53543307086614178 0.54330708661417326 0.55118110236220474 0.55905511811023623 0.56692913385826771 0.57480314960629919 0.58267716535433067 0.59055118110236215 0.59842519685039375 0.60629921259842523 0.61417322834645671 0.62204724409448819 0.62992125984251968 0.63779527559055116 0.64566929133858264 0.65354330708661412 0.66141732283464572 0.6692913385826772 0.67716535433070868 0.68503937007874016 0.69291338582677164 0.70078740157480313 0.70866141732283461 0.71653543307086609 0.72440944881889768 0.73228346456692917 0.74015748031496065 0.74803149606299213 0.75590551181102361 0.76377952755905509 0.77165354330708658 0.77952755905511806 0.78740157480314965 0.79527559055118113 0.80314960629921262 0.8110236220472441 0.81889763779527558 0.82677165354330706 0.83464566929133854 0.84251968503937003 0.85039370078740162 0.8582677165354331 0.86614173228346458 0.87401574803149606 0.88188976377952755 0.88976377952755903 0.89763779527559051 0.90551181102362199 0.91338582677165359 0.92125984251968507 0.92913385826771655 0.93700787401574803 0.94488188976377951 0.952755905511811 0.96062992125984248 0.96850393700787396 0.97637795275590555 0.98425196850393704 0.99212598425196852 1
        </DataArray>
      </PointData>
      <CellData Scalars="P">
        <DataArray type="Float32" Name="P" NumberOfComponents="1">
          0.0029917336096884394 0.076038847261446663 0.21370326361957284 0.40278324860456211 0.62261237186708374 0.84823513562972463 1.0533429601187945 1.2128736886456395 1.3051926798744453 1.3137836779490351 1.2283918007723442 1.0455842751617064 0.76872784675302996 0.407422079211959 -0.02353071664182391 -0.50550222308341697 -1.0176204925772356 -1.5384080968616329 -2.0473337316522047 -2.5261567851585984 -2.9599760936088764 -3.337930189069592 -3.6535313757974461 -3.9046456796190459 -4.0931526174399613 -4.2243323180404797 -4.3060340182271002 -4.3476818110313245 -4.3591737367530463 -4.3497317482579572 -4.3267648572112334 -4.2948167543994344 -4.2546817565950068 -4.2027868439243559 -4.130949195530853 -4.0266233994122524 -3.8737454241353233 -3.6542568829266862 -3.350349615364653 -2.9474055185475163 -2.4375206629214836 -1.8233997046826396 -1.1222933992365474 -0.36953909193602208 0.37883465203868527 1.0450459887574968 1.5306668609438665 1.7204838921722494 1.489590279957387 0.71402558619134515 -0.71489670989054255 -0.91805808836292746 -1.1129909878224655 -1.2400089621215582 -1.2468555162129393 -1.0922586722760408 -0.74787024356564558 -0.19903559087990547 0.55528513544564495 1.5032215518045835 2.6211754087790715 3.8753855609048151 5.2238125564460862 6.6182934323329157 8.0069150045853323 9.3365396987601201 10.555396731504699 11.615628963179681 12.475667889293325 13.102301305345526 13.472303948274435 13.57352242523408 13.405340866162915 12.978499285781298 12.314286963351115 11.443181688595706 10.403046253738861 9.2370213380227497 7.9912664129613846 6.7126974671795532 5.4468543947729966 4.2360055385917992 3.1175665314305143 2.1228794698108602 1.2763700129565287 0.59507647799866925 0.088527412294266847 -0.24106761023292417 -0.39835595657308642 -0.39415367273146706 -0.24457667475566991 0.029963398667403489 0.40585424638032563 0.85742513463669934 1.3580931455129579 1.8814711370792443 2.4023967474008603 2.8978447877007842 3.3476902166592826 3.7352957765097115 4.0479071801094264 4.2768489983968472 4.4175253475033136 4.4692401664309065 4.4348613204969149 4.3203600827842639 4.1342620983862766 3.8870474131699826 3.590535598651285 3.2572878092281221 2.9000514104582482 2.5312654258554579 2.16263733055112 1.80479450552238 1.4670076815677993 1.1569795261718694 0.88068957009947746 0.64228717840288452 0.44402732295589453 0.28624942076826826 0.16740718427184001 0.084166761207847537 0.03160058656821791 0.0035140826524492634 -0.0070501069481831357 -0.0070825568535625256 -0.0026085299339739807
        </DataArray>
      </CellData>
      <Points>
        <DataArray type="Float32" NumberOfComponents="3" format="ascii">
          -1.7506447188715044 0.77564428797710772 0
          -1.7479763719605173 0.76823617852962589 0
          -1.7450682737739973 0.76091885800897896 0
          -1.7418747817971689 0.75372150455515408 0
          -1.7383552530898667 0.74667783412178446 0
          -1.734475401808131 0.7398260294722977 0
          -1.7302085451199067 0.73320828749524725 0
          -1.7255366657930802 0.72686997385334018 0
          -1.7204512107874634 0.7208584083569235 0
          -1.7149535464779895 0.71522133944477562 0
          -1.7090550040520551 0.71000519822544461 0
          -1.7027764727288885 0.70525324773719378 0
          -1.6961475314117074 0.70100375778192847 0
          -1.6892051472400025 0.6972883373044827 0
          -1.6819920072783276 0.69413054394619678 0
          -1.6745545821191561 0.69154486523691372 0
          -1.6669410431087972 0.68953613095841437 0
          -1.6591991653736122 0.68809937599687343 0
          -1.6513743459529131 0.68722013263144144 0
          -1.6435078512770067 0.68687509557984328 0
          -1.6356353837728683 0.68703307613362208 0
          -1.6277860273803249 0.68765614573675282 0
          -1.6199816003498435 0.68870086506010075 0
          -1.612236414589961 0.69011950110861064 0
          -1.6045574168301553 0.69186115009876337 0
          -1.5969446695546508 0.6938727050160558 0
          -1.589392119409949 0.6960996309871007 0
          -1.5818885969107739 0.69848653619216883 0
          -1.5744189923381453 0.70097754881085705 0
          -1.5669655569223397 0.70351652985212154 0
          -1.5595092838660238 0.70604716667812062 0
          -1.5520313288542695 0.70851300209254264 0
          -1.5445144332138194 0.7108574588971015 0
          -1.5369443141575274 0.71302391993639824 0
          -1.5293109854763178 0.7149559191169913 0
          -1.5216099690270366 0.71659749007457252 0
          -1.5138433532235713 0.71789370654449658 0
          -1.5060206505508074 0.71879143264518464 0
          -1.4981594030826269 0.71924028291369302 0
          -1.4902854842700128 0.71919377186943856 0
          -1.4824330479171821 0.71861061208219712 0
          -1.4746440821270304 0.71745609926243725 0
          -1.466967537676912 0.71570350398912463 0
          -1.459458017108515 0.71333537372977829 0
          -1.4521740327540549 0.71034463740816189 0
          -1.4451758684473457 0.70673539982315114 0
          -1.4385231095287372 0.70252331682615565 0
          -1.4322719367072696 0.69773545644760782 0
          -1.4264723079748893 0.69240957784851231 0
          -1.4211651745201233 0.68659279977584542 0
          -1.416379886195372 0.68033968215805085 0
          -1.4121319344901808 0.6737098054641758 0
          -1.4079359440428247 0.66704692553537004 0
          -1.4037787674174143 0.66035976321571022 0
          -1.3996439765450457 0.65365873930747986 0
          -1.3955125582244383 0.64695563804694955 0
          -1.3913635923264058 0.64026338580356001 0
          -1.3871749110787801 0.63359592083345273 0
          -1.3829237371688539 0.62696812716756445 0
          -1.3785872980078633 0.62039580493716662 0
          -1.3741434128074252 0.61389565029102322 0
          -1.3695710478816239 0.60748522028089691 0
          -1.3648508338268182 0.60118286150118294 0
          -1.3599655361589724 0.59500758572144241 0
          -1.3549004689589408 0.58897888110502572 0
          -1.349643839518156 0.58311645367474974 0
          -1.3441870113252383 0.57743990019602343 0
          -1.3385246733567528 0.57196832022392319 0
          -1.3326549057655981 0.5667198812324693 0
          -1.3265791357380818 0.56171135598274846 0
          -1.3203019823292836 0.55695765506996076 0
          -1.3138309950751588 0.55247137948625369 0
          -1.3071762975263979 0.5482624177867742 0
          -1.3003501528581367 0.54433761002606984 0
          -1.2933664736879351 0.54070049627711925 0
          -1.2862403015999044 0.53735116173295427 0
          -1.2789872832463172 0.53428618377377546 0
          -1.2716231691583755 0.53149867969144193 0
          -1.2641633586896912 0.5289784476972923 0
          -1.2566225102110899 0.52671218896650474 0
          -1.2490142302981797 0.52468379515995955 0
          -1.2413508497904397 0.52287468424959693 0
          -1.2336432888127595 0.52126416747271431 0
          -1.225901007602028 0.51982983159546892 0
          -1.2181320356000571 0.51854792300355956 0
          -1.2103430679385396 0.51739372304014575 0
          -1.2025396161955491 0.51634190707334715 0
          -1.1947261990850082 0.51536688265344999 0
          -1.1869065584220495 0.51444310455560271 0
          -1.1790838861283952 0.51354536633725101 0
          -1.1712610490412718 0.51264906920570874 0
          -1.1634407997224832 0.51173046950791723 0
          -1.1556259632128016 0.51076690610553865 0
          -1.1478195916482656 0.50973700841498026 0
          -1.1400250807761858 0.5086208851325873 0
          -1.1322462446164623 0.50740029279853027 0
          -1.1244873467453014 0.50605878254026926 0
          -1.1167530888640322 0.50458182271748542 0
          -1.1090485593762043 0.50295689487059136 0
          -1.1013791465445799 0.50117356041708661 0
          -1.0937504223477807 0.49922349595940207 0
          -1.086168004324138 0.49710049583272237 0
          -1.0786374034166621 0.49480044155838154 0
          -1.0711638660852998 0.49232123907332548 0
          -1.0637522187332142 0.48966272585686804 0
          -1.0564067218420163 0.48682655124833668 0
          -1.0491309401998024 0.48381603423149938 0
          -1.0419276343347676 0.48063600366678916 0
          -1.0347986768503277 0.47729262632566299 0
          -1.0277449959119311 0.47379322810384172 0
          -1.0207665467684788 0.47014611347616259 0
          -1.013862310990425 0.466360387647689 0
          -1.007030322134215 0.46244578501546707 0
          -1.0002677158316506 0.45841250655511379 0
          -0.99357080185763602 0.45427106766027564 0
          -0.98693515553018019 0.45003215685980319 0
          -0.98035572580267905 0.44570650477670964 0
          -0.97382695756768101 0.44130476172287253 0
          -0.96734292594485272 0.43683738148176987 0
          -0.96089748061569513 0.43231450814815436 0
          -0.95448439854245792 0.42774586239414364 0
          -0.94809754362961618 0.42314062324138307 0
          -0.94173103203102326 0.41850730136806202 0
          -0.93537940187280721 0.41385360020321899 0
          -0.9290377861726673 0.40918626160162375 0
          -0.92270208773527163 0.40451089379893257 0
          -0.91636915485658865 0.399831780669123 0
          -0.91003695685628661 0.395151673090962 0
        </DataArray>
      </Points>
      <Cells>
        <DataArray type="Int32" Name="connectivity" format="ascii">
          0 1 1 2 2 3 3 4 4 5 5 6 6 7 7 8 8 9 9 10 10 11 11 12 12 13 13 14 14 15 15 16 16 17 17 18 18 19 19 20 20 21 21 22 22 23 23 24 24 25 25 26 26 27 27 28 28 29 29 30 30 31 31 32 32 33 33 34 34 35 35 36 36 37 37 38 38 39 39 40 40 41 41 42 42 43 43 44 44 45 45 46 46 47 47 48 48 49 49 50 50 51 51 52 52 53 53 54 54 55 55 56 56 57 57 58 58 59 59 60 60 61 61 62 62 63 63 64 64 65 65 66 66 67 67 68 68 69 69 70 70 71 71 72 72 73 73 74 74 75 75 76 76 77 77 78 78 79 79 80 80 81 81 82 82 83 83 84 84 85 85 86 86 87 87 88 88 89 89 90 90 91 91 92 92 93 93 94 94 95 95 96 96 97 97 98 98 99 99 100 100 101 101 102 102 103 103 104 104 105 105 106 106 107 107 108 108 109 109 110 110 111 111 112 112 113 113 114 114 115 115 116 116 117 117 118 118 119 119 120 120 121 121 122 122 123 123 124 124 125 125 126 126 127 
        </DataArray>
        <DataArray type="Int32" Name="offsets" format="ascii">
          2 4 6 8 10 12 14 16 18 20 22 24 26 28 30 32 34 36 38 40 42 44 46 48 50 52 54 56 58 60 62 64 66 68 70 72 74 76 78 80 82 84 86 88 90 92 94 96 98 100 102 104 106 108 110 112 114 116 118 120 122 124 126 128 130 132 134 136 138 140 142 144 146 148 150 152 154 156 158 160 162 164 166 168 170 172 174 176 178 180 182 184 186 188 190 192 194 196 198 200 202 204 206 208 210 212 214 216 218 220 222 224 226 228 230 232 234 236 238 240 242 244 246 248 250 252 254 
        </DataArray>
        <DataArray type="Int32" Name="types" format="ascii">
          3 3 3 3 3 3 3 3 3 3 3 3 3 3 3 3 3 3 3 3 3 3 3 3 3 3 3 3 3 3 3 3 3 3 3 3 3 3 3 3 3 3 3 3 3 3 3 3 3 3 3 3 3 3 3 3 3 3 3 3 3 3 3 3 3 3 3 3 3 3 3 3 3 3 3 3 3 3 3 3 3 3 3 3 3 3 3 3 3 3 3 3 3 3 3 3 3 3 3 3 3 3 3 3 3 3 3 3 3 3 3 3 3 3 3 3 3 3 3 3 3 3 3 3 3 3 3         </DataArray>
      </Cells>
    </Piece>
  </UnstructuredGrid>
</VTKFile>
<!-- DATA


-->
