<?xml version="1.0"?>
<VTKFile type="UnstructuredGrid" version="0.1" byte_order="LittleEndian">
  <UnstructuredGrid>
    <Piece NumberOfPoints="128" NumberOfCells="127">
      <PointData Scalars="u">
        <DataArray type="Float32" Name="Y" NumberOfComponents="2">

0 0
0.17035050862598056 -0.16161076267050933
0.15814338405093367 -0.18166297123046024
0.15654448749700076 -0.1802139914084388
0.16254583062533395 -0.1644045535072641
0.16827369824522034 -0.13793564360000188
0.17468666854290318 -0.10605555085344497
0.17672387594593034 -0.071055093785541479
0.17755302246583338 -0.035528416958570987
0.17524503275407036 0.00039814064135034903
0.17002209667030799 0.036290830634781772
0.16150279432414952 0.071674829419213104
0.14998046997722345 0.10599745254038663
0.13567725513649737 0.13886540048974971
0.11877543160529407 0.1700277270949698
0.099754267696541318 0.19940761779834065
0.07629707517619165 0.22618147375515285
0.052788923281279827 0.25306845715445903
0.026204163882982433 0.28299290835176205
-0.0051723384470516017 0.3183974683562521
-0.042240461229873683 0.36079483217302066
-0.088108693417714198 0.40885505682725082
-0.13904316965362931 0.46463247632422094
-0.20000158321308564 0.5254890800089852
-0.26671446444800784 0.59273202043602369
-0.34250861905097013 0.66174166391688993
-0.42272777153484919 0.73088244568276994
-0.50583922315096685 0.79810883044463354
-0.58900921473003209 0.86401957016019937
-0.67313889560882134 0.92398392146787978
-0.75211865186958449 0.97700570892447092
-0.82311588911285549 1.0233097980792214
-0.88585273998076197 1.0597047521512857
-0.93540320990589754 1.0872938207032228
-0.97143821991639123 1.1041614935464592
-0.9896980683341623 1.108564084209487
-0.98781583687022856 1.1013150712485591
-0.96822398740368931 1.0834337222084671
-0.93222783561219336 1.0568434606632617
-0.8818551720304042 1.0236690185456723
-0.82246650524039433 0.98469220597802787
-0.75200626950036542 0.9416186516285453
-0.66914915524332985 0.89123805019210944
-0.5742204649009427 0.83186262268979727
-0.4697183947795246 0.76368159922498524
-0.36537823491876142 0.68606458287797845
-0.25589465306515857 0.60567190967591999
-0.14616377011142298 0.52010989735362712
-0.048276472018833227 0.42902902807713128
0.048470074890235477 0.34217078249128419
0.13672203818814749 0.25848283563970054
0.20132975992413946 0.18153001614611552
0.27706302836978952 0.12911900423314346
0.29542251603389824 0.088340374038579292
0.29533206284781471 0.066923455697748893
0.2897724541098245 0.064692883194338718
0.28525671253820784 0.079498508430611778
0.28369579983776627 0.10834881342380256
0.28702626693987476 0.14852733451265088
0.29695604440926587 0.19723669430665905
0.31420935879754175 0.25136845237454131
0.34055575600236815 0.30672968253074478
0.37411458392479041 0.36017603927212405
0.41371640113276648 0.40980674358160801
0.45741420281481227 0.45537597175842121
0.50680883257422871 0.49478412757150381
0.55952725753505916 0.52758709843300711
0.61458997436901219 0.55349880734048396
0.6713083311377962 0.57274541838777804
0.72927283480870453 0.5859466406787085
0.78841858293431244 0.59389877348182285
0.84891932120784741 0.59745483093573515
0.91111555062849214 0.59738831330873499
0.97540033096915946 0.59430549012715628
1.0419819829307442 0.58874912125457457
1.1111103536413287 0.58050015655782061
1.1834322563404505 0.56785688448707772
1.2580491731310253 0.55395437849922391
1.3375628841360891 0.53869055293767154
1.4239469998644645 0.52270305441942677
1.5192346249742039 0.50636174961915392
1.6254985125579955 0.48980741779127279
1.7448073520467191 0.47298650370621792
1.8791562063205156 0.4556811305576286
2.0303662701666236 0.43755927040006343
2.199913641128493 0.41843331400965189
2.3887587314998768 0.3976222832278189
2.5970259419068769 0.37488349942561972
2.8241469447911292 0.35012649212233948
3.068764947744707 0.32358212566629968
3.3289275632399313 0.29398984786676308
3.6034882728439666 0.2642001745538492
3.8925580627141421 0.23588675199836098
4.1957724751735519 0.21112190850862822
4.5124034585336581 0.19236099880789567
4.8414599025695608 0.18244846156621394
5.1817888210253633 0.18460112660743794
5.532178138672271 0.20237726042979742
5.8914631248679461 0.23945800100374837
6.2588520342604248 0.29991600845423183
6.6339007301362303 0.38845536923916474
7.0162763993601454 0.50992370202954151
7.4055722327984821 0.6694426562550726
7.8010510143516667 0.87398550476756376
8.198117707667949 1.1329469893950486
8.5894517357741549 1.4477819639809821
8.9650621366402081 1.8239729359255332
9.308230211734454 2.2686848783868272
9.5997823159521314 2.7753430384221032
9.8124134225092163 3.3416956240607099
9.9201316645558926 3.9456104136185033
9.8928191778105372 4.5656328926114664
9.7099610554200435 5.160061044654447
9.354428617944464 5.6889733321116127
8.8318959850231629 6.0966838952505986
8.1617452430946891 6.342944981683214
7.3741361344655942 6.4061581477448533
6.5068342556141898 6.2819109983860386
5.6109749966598068 5.9783441904239494
4.722173265526779 5.5332092418150136
3.8781134124923198 4.9821169912250873
3.0804217450656304 4.3618985882410355
2.3562778758827982 3.655610782443508
1.571661092563081 2.8823922003302198
1.0411283932674744 1.9341783689677214
0.57676463507936182 1.0305716905767883
0.21323755691986851 0.3164082259717037
0 0

        </DataArray>
        <DataArray type="Float32" Name="W" NumberOfComponents="2">

-42.137316106605283 13.286350523247965
-42.130562979781828 13.282293623866645
-42.123592915301352 13.278622124376385
-42.116431265649403 13.275340199457558
-42.10910353856702 13.272448280506623
-42.101632761756356 13.269949320798126
-42.094042494119982 13.267841327145643
-42.086354398309759 13.266124507863362
-42.078590261144939 13.264793757193743
-42.070770174243613 13.263846457758248
-42.06291351181796 13.263278682730375
-42.055038828309762 13.26308578147937
-42.047163851641322 13.263261512901174
-42.039305351588091 13.263798491351325
-42.031479068977205 13.264688342841614
-42.023699642910394 13.265921697205647
-42.015980668928123 13.267488893406787
-42.008333128728459 13.269373492711651
-42.000767639689656 13.271563884232057
-41.993293827239867 13.274048710573471
-41.985920106653467 13.276816059893871
-41.978654136133684 13.279854703885151
-41.971499630150376 13.283146872724622
-41.964462084652538 13.286681830884875
-41.957542418511444 13.290441992709772
-41.950744174891483 13.294417182976886
-41.944065536995282 13.298589918980966
-41.937503376956691 13.302943274806049
-41.931052211694421 13.307459236047302
-41.92471066221384 13.312127651625104
-41.918469884556458 13.316929742870633
-41.91231884373601 13.321846069194651
-41.906251504170271 13.326865167586561
-41.900252761564715 13.331965917790283
-41.894312543839476 13.337134598726163
-41.888419126149415 13.342356502092839
-41.882550962608178 13.347606726270683
-41.876692632477408 13.352867917429601
-41.87082727751455 13.358121317702064
-41.864936794280766 13.363346619774921
-41.859002316857982 13.368522054021462
-41.853013922061713 13.373635219761367
-41.846952123011363 13.378661434139824
-41.840797512035387 13.383573936013777
-41.834530986272142 13.388343324372354
-41.828134521075718 13.392937561931699
-41.821601133974532 13.397335610662902
-41.814916410026527 13.401500889006574
-41.808068888437518 13.405393770119037
-41.801059427000311 13.408988105101644
-41.793884251479213 13.41224050677793
-41.786545008348334 13.415105267900483
-41.779056663387195 13.417556055059478
-41.771432384480228 13.419546692372041
-41.763697693680498 13.421051638192834
-41.755883965697656 13.422068369120318
-41.74802249409661 13.422600282118257
-41.740143379205477 13.422651830663154
-41.732275565318048 13.422229983414656
-41.72444654474554 13.421344452103343
-41.716682100279805 13.420007146388159
-41.709006075460458 13.4182320697516
-41.701441107036203 13.416031876404782
-41.694008411601679 13.41341996423696
-41.686727601411647 13.410410908180362
-41.679615604310818 13.407022429402057
-41.672688793928614 13.403270177076537
-41.665962150581706 13.399170139827792
-41.659449319905526 13.394738534291784
-41.653162678972329 13.389991704212092
-41.647113329949207 13.384946124855988
-41.641311129902221 13.379618341225948
-41.635764688721672 13.374024939343503
-41.630481364986849 13.368182507262679
-41.62546725554995 13.362107592461252
-41.620726876985607 13.355816883265591
-41.616263794930582 13.349326630136515
-41.612083586505435 13.34265080990729
-41.608187621482777 13.335805350184787
-41.60457595328765 13.328805867410207
-41.601247232563857 13.321667628190573
-41.598198619617214 13.314405492143701
-41.595425697888842 13.307033838913455
-41.592922388623009 13.299566482956335
-41.590680883241802 13.292016574764856
-41.588691581968149 13.284396498814345
-41.586942601218354 13.276717872560184
-41.585420680466967 13.268991209399443
-41.584110795900315 13.261225959154865
-41.582996261827489 13.253430439933641
-41.582058879814753 13.245611800511098
-41.581283761393934 13.237775559548453
-41.58065028277931 13.229926733355843
-41.580136661114402 13.222069270604447
-41.579720024457885 13.21420616448664
-41.579376495527058 13.206339595633771
-41.579081282287561 13.198471106563735
-41.57880876677654 13.190601806749612
-41.578532587310541 13.182732606113236
-41.578226287322622 13.174864451909617
-41.57786219501353 13.166998649039952
-41.577411993392843 13.159137148564502
-41.576846700472004 13.151282882522985
-41.576137216683911 13.143440077374715
-41.57524742036788 13.135615381210606
-41.574146330088212 13.127817270391814
-41.572803500902438 13.120056750933829
-41.57118216809863 13.112349184854637
-41.569253575086975 13.104712261814516
-41.566984506530886 13.097169030483547
-41.564352018337985 13.089744351665622
-41.561333251682676 13.082467717473977
-41.557917861933795 13.075368187795689
-41.554098954640693 13.068476951530249
-41.549886189344036 13.061818902095208
-41.545298701903526 13.055413084473903
-41.540359484840046 13.049274278582716
-41.535092697385274 13.043414078939419
-41.529528737207819 13.037835307945349
-41.523688512381653 13.032546531090331
-41.517586842496094 13.02756172087186
-41.511217243866696 13.022924115383018
-41.504578348030307 13.01868072371051
-41.497655386015104 13.014917927944452
-41.490584728925263 13.011439942959974
-41.483370226211449 13.008270013417322
-41.47604560259834 13.005364403350235
-41.468663113396289 13.002610035333197

        </DataArray>
        <DataArray type="Float32" Name="u" NumberOfComponents="1">
          0 0.007874015748031496 0.015748031496062992 0.023622047244094488 0.031496062992125984 0.03937007874015748 0.047244094488188976 0.055118110236220472 0.062992125984251968 0.070866141732283464 0.07874015748031496 0.086614173228346455 0.094488188976377951 0.10236220472440945 0.11023622047244094 0.11811023622047244 0.12598425196850394 0.13385826771653545 0.14173228346456693 0.14960629921259844 0.15748031496062992 0.16535433070866143 0.17322834645669291 0.18110236220472442 0.1889763779527559 0.19685039370078741 0.20472440944881889 0.2125984251968504 0.22047244094488189 0.2283464566929134 0.23622047244094488 0.24409448818897639 0.25196850393700787 0.25984251968503935 0.26771653543307089 0.27559055118110237 0.28346456692913385 0.29133858267716534 0.29921259842519687 0.30708661417322836 0.31496062992125984 0.32283464566929132 0.33070866141732286 0.33858267716535434 0.34645669291338582 0.3543307086614173 0.36220472440944884 0.37007874015748032 0.37795275590551181 0.38582677165354329 0.39370078740157483 0.40157480314960631 0.40944881889763779 0.41732283464566927 0.42519685039370081 0.43307086614173229 0.44094488188976377 0.44881889763779526 0.45669291338582679 0.46456692913385828 0.47244094488188976 0.48031496062992124 0.48818897637795278 0.49606299212598426 0.50393700787401574 0.51181102362204722 0.51968503937007871 0.52755905511811019 0.53543307086614178 0.54330708661417326 0.55118110236220474 0.55905511811023623 0.56692913385826771 0.57480314960629919 0.58267716535433067 0.59055118110236215 0.59842519685039375 0.60629921259842523 0.61417322834645671 0.62204724409448819 0.62992125984251968 0.63779527559055116 0.64566929133858264 0.65354330708661412 0.66141732283464572 0.6692913385826772 0.67716535433070868 0.68503937007874016 0.69291338582677164 0.70078740157480313 0.70866141732283461 0.71653543307086609 0.72440944881889768 0.73228346456692917 0.74015748031496065 0.74803149606299213 0.75590551181102361 0.76377952755905509 0.77165354330708658 0.77952755905511806 0.78740157480314965 0.79527559055118113 0.80314960629921262 0.8110236220472441 0.81889763779527558 0.82677165354330706 0.83464566929133854 0.84251968503937003 0.85039370078740162 0.8582677165354331 0.86614173228346458 0.87401574803149606 0.88188976377952755 0.88976377952755903 0.89763779527559051 0.90551181102362199 0.91338582677165359 0.92125984251968507 0.92913385826771655 0.93700787401574803 0.94488188976377951 0.952755905511811 0.96062992125984248 0.96850393700787396 0.97637795275590555 0.98425196850393704 0.99212598425196852 1
        </DataArray>
      </PointData>
      <CellData Scalars="P">
        <DataArray type="Float32" Name="P" NumberOfComponents="1">
          0.036509591085592485 0.38996433712165141 0.93287872231209468 1.588930890314868 2.3184710575857839 3.0730840278473956 3.8369467709771174 4.5815307337340334 5.3116081329917257 6.0250622316228668 6.7212600751159659 7.3965643490469519 8.0487224602167622 8.6765187288192518 9.2791924714951417 9.8574918947702148 10.400097347680916 10.934219531414168 11.47682879364994 12.037030996618997 12.619676119637749 13.204373878773906 13.809953994686985 14.409665241457535 15.018774937226747 15.598293317861328 16.136932593168318 16.623969535479446 17.07954204178597 17.465753117325228 17.778374461271092 18.041150202309343 18.234088680329592 18.381332734873432 18.489371657711107 18.566927200677824 18.641184173249183 18.732156647929667 18.859370595536607 19.039367198784337 19.261030236520757 19.567222600314711 19.984973779755958 20.539128397417862 21.242469693381455 22.0396703675029 22.994872102033813 24.10782248030123 25.285391352965537 26.585693094719417 27.972510686032805 29.291672059967414 30.574859158549597 31.647398540735452 32.540598606916241 33.26984644594404 33.863967940275856 34.344456558932336 34.729340494140793 35.037539815844241 35.290312411101915 35.514849850572205 35.727698683056438 35.935606694110163 36.138462586960387 36.346285519366546 36.563064383881162 36.789024179335392 37.021575610343525 37.256003957691028 37.486520049016143 37.707069472892776 37.91212076228679 38.097310288304612 38.25986081374964 38.400723612911605 38.522340682087048 38.611566238709301 38.65796115244423 38.652454863528611 38.587368193250008 38.456648733002737 38.25629686802499 37.984937771454071 37.644468494909134 37.241680502299687 36.787282531605783 36.296827550162988 35.789529200885767 35.287258692379964 34.79495924389839 34.344164429331663 33.953016225573897 33.641048121072508 33.428191138956436 33.333966111258334 33.376946608602537 33.574560309894999 33.939754217615544 34.492821029265407 35.252232877348028 36.239153206434693 37.474121689393222 39.033770473369792 40.890800276622734 43.042818172884388 45.532781367194175 48.240518754261764 51.116553507606511 53.922667721248224 56.45937248415828 58.390100260310817 59.435377153392508 59.30632475763425 57.892080124455262 55.240188960715479 51.508948316038442 47.028707077772687 41.988532133903412 36.564076498728781 30.481044257990856 23.77098845096792 15.638785318840073 10.434468214990762 4.9755869538872872 1.2465142082894844 -0.038985753411232241
        </DataArray>
      </CellData>
      <Points>
        <DataArray type="Float32" NumberOfComponents="3" format="ascii">
          -42.137316106605283 13.286350523247965 0
          -42.130562979781828 13.282293623866645 0
          -42.123592915301352 13.278622124376385 0
          -42.116431265649403 13.275340199457558 0
          -42.10910353856702 13.272448280506623 0
          -42.101632761756356 13.269949320798126 0
          -42.094042494119982 13.267841327145643 0
          -42.086354398309759 13.266124507863362 0
          -42.078590261144939 13.264793757193743 0
          -42.070770174243613 13.263846457758248 0
          -42.06291351181796 13.263278682730375 0
          -42.055038828309762 13.26308578147937 0
          -42.047163851641322 13.263261512901174 0
          -42.039305351588091 13.263798491351325 0
          -42.031479068977205 13.264688342841614 0
          -42.023699642910394 13.265921697205647 0
          -42.015980668928123 13.267488893406787 0
          -42.008333128728459 13.269373492711651 0
          -42.000767639689656 13.271563884232057 0
          -41.993293827239867 13.274048710573471 0
          -41.985920106653467 13.276816059893871 0
          -41.978654136133684 13.279854703885151 0
          -41.971499630150376 13.283146872724622 0
          -41.964462084652538 13.286681830884875 0
          -41.957542418511444 13.290441992709772 0
          -41.950744174891483 13.294417182976886 0
          -41.944065536995282 13.298589918980966 0
          -41.937503376956691 13.302943274806049 0
          -41.931052211694421 13.307459236047302 0
          -41.92471066221384 13.312127651625104 0
          -41.918469884556458 13.316929742870633 0
          -41.91231884373601 13.321846069194651 0
          -41.906251504170271 13.326865167586561 0
          -41.900252761564715 13.331965917790283 0
          -41.894312543839476 13.337134598726163 0
          -41.888419126149415 13.342356502092839 0
          -41.882550962608178 13.347606726270683 0
          -41.876692632477408 13.352867917429601 0
          -41.87082727751455 13.358121317702064 0
          -41.864936794280766 13.363346619774921 0
          -41.859002316857982 13.368522054021462 0
          -41.853013922061713 13.373635219761367 0
          -41.846952123011363 13.378661434139824 0
          -41.840797512035387 13.383573936013777 0
          -41.834530986272142 13.388343324372354 0
          -41.828134521075718 13.392937561931699 0
          -41.821601133974532 13.397335610662902 0
          -41.814916410026527 13.401500889006574 0
          -41.808068888437518 13.405393770119037 0
          -41.801059427000311 13.408988105101644 0
          -41.793884251479213 13.41224050677793 0
          -41.786545008348334 13.415105267900483 0
          -41.779056663387195 13.417556055059478 0
          -41.771432384480228 13.419546692372041 0
          -41.763697693680498 13.421051638192834 0
          -41.755883965697656 13.422068369120318 0
          -41.74802249409661 13.422600282118257 0
          -41.740143379205477 13.422651830663154 0
          -41.732275565318048 13.422229983414656 0
          -41.72444654474554 13.421344452103343 0
          -41.716682100279805 13.420007146388159 0
          -41.709006075460458 13.4182320697516 0
          -41.701441107036203 13.416031876404782 0
          -41.694008411601679 13.41341996423696 0
          -41.686727601411647 13.410410908180362 0
          -41.679615604310818 13.407022429402057 0
          -41.672688793928614 13.403270177076537 0
          -41.665962150581706 13.399170139827792 0
          -41.659449319905526 13.394738534291784 0
          -41.653162678972329 13.389991704212092 0
          -41.647113329949207 13.384946124855988 0
          -41.641311129902221 13.379618341225948 0
          -41.635764688721672 13.374024939343503 0
          -41.630481364986849 13.368182507262679 0
          -41.62546725554995 13.362107592461252 0
          -41.620726876985607 13.355816883265591 0
          -41.616263794930582 13.349326630136515 0
          -41.612083586505435 13.34265080990729 0
          -41.608187621482777 13.335805350184787 0
          -41.60457595328765 13.328805867410207 0
          -41.601247232563857 13.321667628190573 0
          -41.598198619617214 13.314405492143701 0
          -41.595425697888842 13.307033838913455 0
          -41.592922388623009 13.299566482956335 0
          -41.590680883241802 13.292016574764856 0
          -41.588691581968149 13.284396498814345 0
          -41.586942601218354 13.276717872560184 0
          -41.585420680466967 13.268991209399443 0
          -41.584110795900315 13.261225959154865 0
          -41.582996261827489 13.253430439933641 0
          -41.582058879814753 13.245611800511098 0
          -41.581283761393934 13.237775559548453 0
          -41.58065028277931 13.229926733355843 0
          -41.580136661114402 13.222069270604447 0
          -41.579720024457885 13.21420616448664 0
          -41.579376495527058 13.206339595633771 0
          -41.579081282287561 13.198471106563735 0
          -41.57880876677654 13.190601806749612 0
          -41.578532587310541 13.182732606113236 0
          -41.578226287322622 13.174864451909617 0
          -41.57786219501353 13.166998649039952 0
          -41.577411993392843 13.159137148564502 0
          -41.576846700472004 13.151282882522985 0
          -41.576137216683911 13.143440077374715 0
          -41.57524742036788 13.135615381210606 0
          -41.574146330088212 13.127817270391814 0
          -41.572803500902438 13.120056750933829 0
          -41.57118216809863 13.112349184854637 0
          -41.569253575086975 13.104712261814516 0
          -41.566984506530886 13.097169030483547 0
          -41.564352018337985 13.089744351665622 0
          -41.561333251682676 13.082467717473977 0
          -41.557917861933795 13.075368187795689 0
          -41.554098954640693 13.068476951530249 0
          -41.549886189344036 13.061818902095208 0
          -41.545298701903526 13.055413084473903 0
          -41.540359484840046 13.049274278582716 0
          -41.535092697385274 13.043414078939419 0
          -41.529528737207819 13.037835307945349 0
          -41.523688512381653 13.032546531090331 0
          -41.517586842496094 13.02756172087186 0
          -41.511217243866696 13.022924115383018 0
          -41.504578348030307 13.01868072371051 0
          -41.497655386015104 13.014917927944452 0
          -41.490584728925263 13.011439942959974 0
          -41.483370226211449 13.008270013417322 0
          -41.47604560259834 13.005364403350235 0
          -41.468663113396289 13.002610035333197 0
        </DataArray>
      </Points>
      <Cells>
        <DataArray type="Int32" Name="connectivity" format="ascii">
          0 1 1 2 2 3 3 4 4 5 5 6 6 7 7 8 8 9 9 10 10 11 11 12 12 13 13 14 14 15 15 16 16 17 17 18 18 19 19 20 20 21 21 22 22 23 23 24 24 25 25 26 26 27 27 28 28 29 29 30 30 31 31 32 32 33 33 34 34 35 35 36 36 37 37 38 38 39 39 40 40 41 41 42 42 43 43 44 44 45 45 46 46 47 47 48 48 49 49 50 50 51 51 52 52 53 53 54 54 55 55 56 56 57 57 58 58 59 59 60 60 61 61 62 62 63 63 64 64 65 65 66 66 67 67 68 68 69 69 70 70 71 71 72 72 73 73 74 74 75 75 76 76 77 77 78 78 79 79 80 80 81 81 82 82 83 83 84 84 85 85 86 86 87 87 88 88 89 89 90 90 91 91 92 92 93 93 94 94 95 95 96 96 97 97 98 98 99 99 100 100 101 101 102 102 103 103 104 104 105 105 106 106 107 107 108 108 109 109 110 110 111 111 112 112 113 113 114 114 115 115 116 116 117 117 118 118 119 119 120 120 121 121 122 122 123 123 124 124 125 125 126 126 127 
        </DataArray>
        <DataArray type="Int32" Name="offsets" format="ascii">
          2 4 6 8 10 12 14 16 18 20 22 24 26 28 30 32 34 36 38 40 42 44 46 48 50 52 54 56 58 60 62 64 66 68 70 72 74 76 78 80 82 84 86 88 90 92 94 96 98 100 102 104 106 108 110 112 114 116 118 120 122 124 126 128 130 132 134 136 138 140 142 144 146 148 150 152 154 156 158 160 162 164 166 168 170 172 174 176 178 180 182 184 186 188 190 192 194 196 198 200 202 204 206 208 210 212 214 216 218 220 222 224 226 228 230 232 234 236 238 240 242 244 246 248 250 252 254 
        </DataArray>
        <DataArray type="Int32" Name="types" format="ascii">
          3 3 3 3 3 3 3 3 3 3 3 3 3 3 3 3 3 3 3 3 3 3 3 3 3 3 3 3 3 3 3 3 3 3 3 3 3 3 3 3 3 3 3 3 3 3 3 3 3 3 3 3 3 3 3 3 3 3 3 3 3 3 3 3 3 3 3 3 3 3 3 3 3 3 3 3 3 3 3 3 3 3 3 3 3 3 3 3 3 3 3 3 3 3 3 3 3 3 3 3 3 3 3 3 3 3 3 3 3 3 3 3 3 3 3 3 3 3 3 3 3 3 3 3 3 3 3         </DataArray>
      </Cells>
    </Piece>
  </UnstructuredGrid>
</VTKFile>
<!-- DATA


-->
