<?xml version="1.0"?>
<VTKFile type="UnstructuredGrid" version="0.1" byte_order="LittleEndian">
  <UnstructuredGrid>
    <Piece NumberOfPoints="128" NumberOfCells="127">
      <PointData Scalars="u">
        <DataArray type="Float32" Name="Y" NumberOfComponents="2">

0 0
0.0070666465041227854 -0.0016238858661789602
0.02458788327877583 0.0027834257534105618
0.04754358748336681 0.010918340665065722
0.071279525719537135 0.021905567801062134
0.092092515459948718 0.034530019920697638
0.10725625151346617 0.047184999881542067
0.11505171518153857 0.057921894315591901
0.11477877032645073 0.064587085429586313
0.10672482029928505 0.065022568926106597
0.092071691764601796 0.057298612157845805
0.072732399485054458 0.039941855605295742
0.051123030043529007 0.012122450700466475
0.029888662896270422 -0.026229970715294555
0.01161283246145188 -0.07440006530877652
-0.0014550008219316448 -0.13095384055917236
-0.0076213100725539664 -0.19388719348149169
-0.0058950710354047763 -0.26083154373655498
0.0039533380463641493 -0.3292848489799628
0.021419721580949562 -0.39683527047199524
0.045366969995898281 -0.46134959859888008
0.074177883392107458 -0.52110756485679399
0.10593503918143024 -0.57487402801003362
0.1386038833561441 -0.62191141942728945
0.1701996650566224 -0.66194300878463774
0.19892503645130302 -0.69508256469458751
0.22327149066210811 -0.72174769867557986
0.24208305962701934 -0.74257305379469141
0.25458414403662327 -0.75833629169949768
0.26037487892020778 -0.76990533716639875
0.25939742118506115 -0.77821021193866935
0.25187569394622988 -0.78423749407128418
0.23823033246783179 -0.78904030864153785
0.21897076061186069 -0.79375211946653612
0.19456824698093916 -0.79958891422782419
0.16531787826336661 -0.80782235368529798
0.1312035607033456 -0.81970701388158174
0.091787656566542891 -0.83634899996345069
0.046154150579135134 -0.8585117611832368
-0.0070609143375679846 -0.88636808962616465
-0.069518252991069507 -0.91922418723432298
-0.14287783252037059 -0.95526007371012478
-0.22834667028627509 -0.99134670301286443
-0.32608989021126583 -1.0230089696471818
-0.43455568460140293 -1.0445999541627713
-0.5497980804939635 -1.049730911853443
-0.66490674387034687 -1.0319620034276116
-0.76966072544085884 -0.98570333989605252
-0.85050459240924114 -0.90721261928195762
-0.8908969401824941 -0.79551726259030875
-0.87200678775919316 -0.65305038229065027
-0.76396544674761713 -0.50050481910522848
-0.55923907599490608 -0.36143093189014996
-0.30174760825753821 -0.19329588311144213
-0.0022398252527149939 -0.0014298013348354335
0.3288098754198609 0.21068177383822162
0.68120722987856352 0.4410375681011478
1.0450548354103346 0.68871555564533871
1.4107746872088398 0.95345204163154051
1.7691404233187851 1.235228170070712
2.1113276874737585 1.5338832270455964
2.4289917447317295 1.8487714828087258
2.7143792009408432 2.1784776237887473
2.9604761516601799 2.5206044776157772
3.1611891098645595 2.8716450402286116
3.3115484899250518 3.2269481144905185
3.4079181955606592 3.5807826831634291
3.4481899558586719 3.9265003003279868
3.4319384095797072 4.2567875402254485
3.3605132850801454 4.5639925723357271
3.2370487201523033 4.8405022799654303
3.0663766584649039 5.0791402405820127
2.8548406227224796 5.2735525148776965
2.6100167688429008 5.4185483934551888
2.3403594275855486 5.5103673144017771
2.0547967712300146 5.5468507128925824
1.7623075223156022 5.5275075876725621
1.471511015422261 5.4534736222434521
1.1903003800372405 5.3273741875061651
0.92554274175793705 5.1531100546005968
0.68286224408928164 4.935590169963886
0.46651271510995018 4.6804379723676499
0.27933824459014117 4.3936966274262721
0.12281283390550117 4.0815548476750729
-0.0028547311571367395 3.7501095615547611
-0.098567350210918586 3.4051755695367518
-0.16615457019109023 3.0521463542467497
-0.2081720626207276 2.6959050511507749
-0.22769934954481522 2.3407806319545608
-0.22814661194794786 1.9905417484484882
-0.21307838192117962 1.6484193734843009
-0.18605910631479308 1.3171491673159212
-0.15052319062929373 0.99902513233074808
-0.10967027941997091 0.69595732283560074
-0.066385199644047904 0.40952789634034625
-0.023181119323880572 0.14104141807918022
0.017836043170449588 -0.10843309988930744
0.054984189360931933 -0.33802954296824539
0.08700492870437801 -0.54706137906029428
0.11304914630181177 -0.73500675797184001
0.13265059900025072 -0.9015005013776104
0.14568986244000509 -1.0463311368537676
0.15235091721327315 -1.169441053731844
0.1530726116035078 -1.2709279899574486
0.14849715759250856 -1.3510463498651
0.1394176927293635 -1.410207250581099
0.12672676474429687 -1.4489766469886169
0.11136736823303632 -1.4680713424320815
0.094287891696961432 -1.4683531117850299
0.076402034322058596 -1.4508215114402425
0.058554446015660719 -1.4166062039525562
0.041492553650734405 -1.3669597709542809
0.025844781870376962 -1.3032520237895497
0.012105173493877703 -1.2269667522342915
0.0006242706344062953 -1.1397016883808302
-0.0083939685298662567 -1.0431722191119661
-0.014889482049462281 -0.93921907142587202
-0.018937924560560412 -0.82981983470324994
-0.020737293474631928 -0.71710378647834894
-0.020589717929945288 -0.60336906665424428
-0.018878906870737296 -0.49110081354662916
-0.0160440102900288 -0.38298845042386881
-0.01255105554743597 -0.28193991423210518
-0.0088636955051068934 -0.1910902745502859
-0.0054157419275565914 -0.11380192930145097
-0.0025888165624574416 -0.053653412107715889
-0.00069935376242650604 -0.014413823161942618
0 0

        </DataArray>
        <DataArray type="Float32" Name="W" NumberOfComponents="2">

-0.57599390216581481 0.22771552562804934
-0.57332540268018051 0.22030747124182329
-0.57041702725234322 0.21299026107553728
-0.56722315498004117 0.20579307659973475
-0.56370317907444023 0.1987496299280376
-0.55982286484841159 0.19189808780032017
-0.55555559367784324 0.18528061351229555
-0.55088342113541178 0.17894251651265608
-0.54579786881158077 0.17293103393741885
-0.54030037096640504 0.16729380337580102
-0.5344023104201554 0.16207711809457473
-0.52812460248535198 0.1573240808431797
-0.52149681885935384 0.15307278661389045
-0.51455588121260554 0.1493546658382304
-0.50734439172043289 0.14619310668107824
-0.49990869988112518 0.14360244958192162
-0.49229682732801461 0.14158741212118262
-0.484556382223846 0.14014296217559666
-0.47673259145034247 0.13925461728372623
-0.46886656340109961 0.13889911300751193
-0.46099386960675603 0.13904535664852394
-0.45314350351179489 0.13965556722788089
-0.44533724357171894 0.14068649874709807
-0.4375894190992346 0.14209065046353481
-0.42990705367307358 0.14381738314785134
-0.42229034395664033 0.14581388130983816
-0.41473342177695366 0.14802592530134803
-0.4072253435887781 0.15039846139449806
-0.39975125257944083 0.15287598025105498
-0.39229366287367662 0.15540273310791416
-0.38483382075503236 0.15792282955101861
-0.37735310294478974 0.16038027047188269
-0.36983441560702085 0.16271897459497331
-0.36226355923704134 0.16488285697094524
-0.35463052383648375 0.16681601334524382
-0.34693067616288814 0.16846305573533307
-0.33916579712587885 0.16976963237525039
-0.33134492358931311 0.17068314999966169
-0.32348494603246319 0.17115369892636118
-0.31561091279940207 0.17113516233806808
-0.30775599398106429 0.17058647143132
-0.29996106411467627 0.16947294864766532
-0.29227387344251504 0.16776766309171776
-0.28474779282174417 0.16545270669402687
-0.27744013761320591 0.16252028815660799
-0.27041010066700932 0.15897353599560426
-0.26371635287189049 0.15482690413488248
-0.25741439969884639 0.15010608569640313
-0.25155381061544707 0.14484736480097943
-0.24617546082973016 0.13909637338902556
-0.24130893634003317 0.1329062697774443
-0.23697024851993839 0.1263354152428226
-0.23267892857431796 0.11973353196709398
-0.22842228313728347 0.11310924225755974
-0.22418434741005105 0.10647297017490426
-0.21994655159405141 0.099836611075463405
-0.21568837030633101 0.093213315519422066
-0.21138795462240359 0.08661736520429282
-0.20702274571108412 0.080064115812236464
-0.20257006866558702 0.073569980674056012
-0.19800770453312699 0.067152429613095185
-0.19331443742175944 0.060829978993519461
-0.18847057187327912 0.054622151696737432
-0.18345841357624684 0.048549389382130097
-0.17826270423421731 0.04263290387027216
-0.17287099937152989 0.036894459713469954
-0.16727397646008035 0.031356085822370594
-0.16146566037160673 0.02603972013908509
-0.15544355410527125 0.020966797424719175
-0.1492086651736925 0.016157795813207889
-0.14276542193060293 0.011631762379702619
-0.13612147926080517 0.0074058411059951968
-0.12928741900073959 0.0034948279193509355
-0.12227635663518668 -8.9223274441113982e-05
-0.11510347156487334 -0.0033373224355526536
-0.10778548292219596 -0.0062437765614789115
-0.10034009600508577 -0.0088063235292572869
-0.092785445574808306 -0.011026162542663167
-0.085139561435736616 -0.012907883718780202
-0.077419879041521894 -0.01445930530833466
-0.069642813716632626 -0.015691231836677411
-0.061823411946899991 -0.016617149734785609
-0.053975087634212625 -0.017252878670192984
-0.046109445759563925 -0.017616196854816572
-0.038236190995735338 -0.017726457330125529
-0.03036311476679332 -0.017604209945144611
-0.022496151234667534 -0.017270840829215893
-0.014639490739557498 -0.016748237989535231
-0.0067957382609316495 -0.016058488553212263
0.0010338956425716772 -0.01522361037017197
0.0088493833927581911 -0.014265318358104901
0.016651659382468841 -0.013204824185164752
0.024442398972432691 -0.012062666663119864
0.032223805551773808 -0.010858569523818027
0.039998412154815546 -0.0096113230004811617
0.047768902597668222 -0.0083386857382670709
0.055537955658706756 -0.0070573039149391245
0.063308114509493169 -0.005782644965046096
0.07108168242342662 -0.0045289438828826816
0.078860644755106624 -0.0033091606587138567
0.086646616295533635 -0.0021349479245064361
0.094440812366025223 -0.0010166283126770708
0.10224404141547475 3.6818655870642761e-05
0.11005671642919113 0.0010177601445819425
0.1178788821398918 0.0019199039426043378
0.12571025484747195 0.0027382826928060897
0.13355027159624958 0.0034692284034622302
0.14139814551559665 0.0041103373597761519
0.14925292428810319 0.004660425682527238
0.15711354895188145 0.0051194758982045022
0.16497891055176495 0.0054885749664275391
0.17284790250902857 0.0057698442405701477
0.18071946696283425 0.0059663618072426051
0.18859263373309923 0.0060820775574343755
0.1964665509512897 0.0061217211909541788
0.20434050679382781 0.0060907031564544304
0.21221394212702707 0.0059950082969009843
0.22008645423027634 0.0058410817240173865
0.22795779210469014 0.0056357062073282655
0.23582784419647554 0.0053858701585974746
0.24369661966415596 0.0050986251468448616
0.25156422458791045 0.0047809318194877151
0.25943083474164602 0.0044394931578213117
0.26729666669874791 0.0040805741846392804
0.27516194908509878 0.003709807589603889
0.2830268956822613 0.0033319852602217898
0.29089168176641828 0.002950836412363596
0.29875642448887307 0.0025687939056128432

        </DataArray>
        <DataArray type="Float32" Name="u" NumberOfComponents="1">
          0 0.007874015748031496 0.015748031496062992 0.023622047244094488 0.031496062992125984 0.03937007874015748 0.047244094488188976 0.055118110236220472 0.062992125984251968 0.070866141732283464 0.07874015748031496 0.086614173228346455 0.094488188976377951 0.10236220472440945 0.11023622047244094 0.11811023622047244 0.12598425196850394 0.13385826771653545 0.14173228346456693 0.14960629921259844 0.15748031496062992 0.16535433070866143 0.17322834645669291 0.18110236220472442 0.1889763779527559 0.19685039370078741 0.20472440944881889 0.2125984251968504 0.22047244094488189 0.2283464566929134 0.23622047244094488 0.24409448818897639 0.25196850393700787 0.25984251968503935 0.26771653543307089 0.27559055118110237 0.28346456692913385 0.29133858267716534 0.29921259842519687 0.30708661417322836 0.31496062992125984 0.32283464566929132 0.33070866141732286 0.33858267716535434 0.34645669291338582 0.3543307086614173 0.36220472440944884 0.37007874015748032 0.37795275590551181 0.38582677165354329 0.39370078740157483 0.40157480314960631 0.40944881889763779 0.41732283464566927 0.42519685039370081 0.43307086614173229 0.44094488188976377 0.44881889763779526 0.45669291338582679 0.46456692913385828 0.47244094488188976 0.48031496062992124 0.48818897637795278 0.49606299212598426 0.50393700787401574 0.51181102362204722 0.51968503937007871 0.52755905511811019 0.53543307086614178 0.54330708661417326 0.55118110236220474 0.55905511811023623 0.56692913385826771 0.57480314960629919 0.58267716535433067 0.59055118110236215 0.59842519685039375 0.60629921259842523 0.61417322834645671 0.62204724409448819 0.62992125984251968 0.63779527559055116 0.64566929133858264 0.65354330708661412 0.66141732283464572 0.6692913385826772 0.67716535433070868 0.68503937007874016 0.69291338582677164 0.70078740157480313 0.70866141732283461 0.71653543307086609 0.72440944881889768 0.73228346456692917 0.74015748031496065 0.74803149606299213 0.75590551181102361 0.76377952755905509 0.77165354330708658 0.77952755905511806 0.78740157480314965 0.79527559055118113 0.80314960629921262 0.8110236220472441 0.81889763779527558 0.82677165354330706 0.83464566929133854 0.84251968503937003 0.85039370078740162 0.8582677165354331 0.86614173228346458 0.87401574803149606 0.88188976377952755 0.88976377952755903 0.89763779527559051 0.90551181102362199 0.91338582677165359 0.92125984251968507 0.92913385826771655 0.93700787401574803 0.94488188976377951 0.952755905511811 0.96062992125984248 0.96850393700787396 0.97637795275590555 0.98425196850393704 0.99212598425196852 1
        </DataArray>
      </PointData>
      <CellData Scalars="P">
        <DataArray type="Float32" Name="P" NumberOfComponents="1">
          0.0029737533815654194 0.075466632261681502 0.211445765554998 0.39705170595774014 0.61101146871419887 0.82790501231387104 1.0211784793390764 1.1657999219000639 1.2404695530871341 1.2293088592620449 1.1229699790697425 0.91913344545936115 0.62239908120719245 0.24361794160399375 -0.20124355632945501 -0.69257990966150029 -1.2088126107883157 -1.7280889423965282 -2.2298670186774743 -2.6962656804750491 -3.1130924657854759 -3.4705011180931797 -3.7632663544040628 -3.990693630198773 -4.1562030970860224 -4.2666396042444026 -4.3313659680430456 -4.36119753506122 -4.3672354803691738 -4.3596572701993388 -4.3465273816475669 -4.3327005099449902 -4.3189023422802348 -4.3010871845211813 -4.2701835704331792 -4.2123438111448062 -4.1098063025957119 -3.9424557686184327 -3.6901230907570852 -3.3356013582282524 -2.8682689539042046 -2.2881072773957936 -1.6097865832601155 -0.86637829206816719 -0.1121494700787935 0.57617856459135897 1.1003527650361935 1.3443031342011218 1.181159568516938 0.48392286013987279 -0.86003792493562548 -1.0397905415838455 -1.210039429322203 -1.3129146149618869 -1.2967371828277385 -1.1194969515750353 -0.75079036420323741 -0.17266292512167974 0.62032354276943835 1.6215766699923553 2.8133660091066264 4.1680315042975407 5.6494542962374625 7.2147562490291159 8.8161997280769686 10.403252128563585 11.924763966711451 13.331189222596723 14.576756734545659 15.621486447834009 16.432938243529694 16.987586664726567 17.271733042641397 17.281896137477119 17.024660297724903 16.516001680721587 15.780152983793807 14.84810042144785 13.755829524704772 12.542446662064007 11.248300870508116 9.9132172824282829 8.5749320447319448 7.2677926628962553 6.0217606420921177 4.8617280693351379 3.8071384615452448 2.8718859259262066 2.0644557113750861 1.3882631782875223 0.84214626323539787 0.42096766147219927 0.11628619342822163 -0.082938708477906964 -0.18964043137322847 -0.21796245020638733 -0.18262040509801941 -0.09832531152630225 0.020720094860189643 0.1612438882323676 0.31124208862730451 0.46022956862475689 0.59940700887223386 0.7217489126991582 0.82201995876119238 0.89672869155445178 0.94402865406439818 0.96357751873072628 0.95636458107473743 0.92451620453262573 0.87108755607856925 0.79984740654274311 0.71506107984881828 0.62127503887893332 0.5231053208634906 0.425031308123973 0.33119634910827228 0.2452177032649058 0.17001028787269232 0.10763178744674833 0.059160759691161871 0.024624189145407607 0.0029960496806156764 -0.0077068560918008037 -0.01020217757145417 -0.0075620956291924616 -0.0026492589640121447
        </DataArray>
      </CellData>
      <Points>
        <DataArray type="Float32" NumberOfComponents="3" format="ascii">
          -0.57599390216581481 0.22771552562804934 0
          -0.57332540268018051 0.22030747124182329 0
          -0.57041702725234322 0.21299026107553728 0
          -0.56722315498004117 0.20579307659973475 0
          -0.56370317907444023 0.1987496299280376 0
          -0.55982286484841159 0.19189808780032017 0
          -0.55555559367784324 0.18528061351229555 0
          -0.55088342113541178 0.17894251651265608 0
          -0.54579786881158077 0.17293103393741885 0
          -0.54030037096640504 0.16729380337580102 0
          -0.5344023104201554 0.16207711809457473 0
          -0.52812460248535198 0.1573240808431797 0
          -0.52149681885935384 0.15307278661389045 0
          -0.51455588121260554 0.1493546658382304 0
          -0.50734439172043289 0.14619310668107824 0
          -0.49990869988112518 0.14360244958192162 0
          -0.49229682732801461 0.14158741212118262 0
          -0.484556382223846 0.14014296217559666 0
          -0.47673259145034247 0.13925461728372623 0
          -0.46886656340109961 0.13889911300751193 0
          -0.46099386960675603 0.13904535664852394 0
          -0.45314350351179489 0.13965556722788089 0
          -0.44533724357171894 0.14068649874709807 0
          -0.4375894190992346 0.14209065046353481 0
          -0.42990705367307358 0.14381738314785134 0
          -0.42229034395664033 0.14581388130983816 0
          -0.41473342177695366 0.14802592530134803 0
          -0.4072253435887781 0.15039846139449806 0
          -0.39975125257944083 0.15287598025105498 0
          -0.39229366287367662 0.15540273310791416 0
          -0.38483382075503236 0.15792282955101861 0
          -0.37735310294478974 0.16038027047188269 0
          -0.36983441560702085 0.16271897459497331 0
          -0.36226355923704134 0.16488285697094524 0
          -0.35463052383648375 0.16681601334524382 0
          -0.34693067616288814 0.16846305573533307 0
          -0.33916579712587885 0.16976963237525039 0
          -0.33134492358931311 0.17068314999966169 0
          -0.32348494603246319 0.17115369892636118 0
          -0.31561091279940207 0.17113516233806808 0
          -0.30775599398106429 0.17058647143132 0
          -0.29996106411467627 0.16947294864766532 0
          -0.29227387344251504 0.16776766309171776 0
          -0.28474779282174417 0.16545270669402687 0
          -0.27744013761320591 0.16252028815660799 0
          -0.27041010066700932 0.15897353599560426 0
          -0.26371635287189049 0.15482690413488248 0
          -0.25741439969884639 0.15010608569640313 0
          -0.25155381061544707 0.14484736480097943 0
          -0.24617546082973016 0.13909637338902556 0
          -0.24130893634003317 0.1329062697774443 0
          -0.23697024851993839 0.1263354152428226 0
          -0.23267892857431796 0.11973353196709398 0
          -0.22842228313728347 0.11310924225755974 0
          -0.22418434741005105 0.10647297017490426 0
          -0.21994655159405141 0.099836611075463405 0
          -0.21568837030633101 0.093213315519422066 0
          -0.21138795462240359 0.08661736520429282 0
          -0.20702274571108412 0.080064115812236464 0
          -0.20257006866558702 0.073569980674056012 0
          -0.19800770453312699 0.067152429613095185 0
          -0.19331443742175944 0.060829978993519461 0
          -0.18847057187327912 0.054622151696737432 0
          -0.18345841357624684 0.048549389382130097 0
          -0.17826270423421731 0.04263290387027216 0
          -0.17287099937152989 0.036894459713469954 0
          -0.16727397646008035 0.031356085822370594 0
          -0.16146566037160673 0.02603972013908509 0
          -0.15544355410527125 0.020966797424719175 0
          -0.1492086651736925 0.016157795813207889 0
          -0.14276542193060293 0.011631762379702619 0
          -0.13612147926080517 0.0074058411059951968 0
          -0.12928741900073959 0.0034948279193509355 0
          -0.12227635663518668 -8.9223274441113982e-05 0
          -0.11510347156487334 -0.0033373224355526536 0
          -0.10778548292219596 -0.0062437765614789115 0
          -0.10034009600508577 -0.0088063235292572869 0
          -0.092785445574808306 -0.011026162542663167 0
          -0.085139561435736616 -0.012907883718780202 0
          -0.077419879041521894 -0.01445930530833466 0
          -0.069642813716632626 -0.015691231836677411 0
          -0.061823411946899991 -0.016617149734785609 0
          -0.053975087634212625 -0.017252878670192984 0
          -0.046109445759563925 -0.017616196854816572 0
          -0.038236190995735338 -0.017726457330125529 0
          -0.03036311476679332 -0.017604209945144611 0
          -0.022496151234667534 -0.017270840829215893 0
          -0.014639490739557498 -0.016748237989535231 0
          -0.0067957382609316495 -0.016058488553212263 0
          0.0010338956425716772 -0.01522361037017197 0
          0.0088493833927581911 -0.014265318358104901 0
          0.016651659382468841 -0.013204824185164752 0
          0.024442398972432691 -0.012062666663119864 0
          0.032223805551773808 -0.010858569523818027 0
          0.039998412154815546 -0.0096113230004811617 0
          0.047768902597668222 -0.0083386857382670709 0
          0.055537955658706756 -0.0070573039149391245 0
          0.063308114509493169 -0.005782644965046096 0
          0.07108168242342662 -0.0045289438828826816 0
          0.078860644755106624 -0.0033091606587138567 0
          0.086646616295533635 -0.0021349479245064361 0
          0.094440812366025223 -0.0010166283126770708 0
          0.10224404141547475 3.6818655870642761e-05 0
          0.11005671642919113 0.0010177601445819425 0
          0.1178788821398918 0.0019199039426043378 0
          0.12571025484747195 0.0027382826928060897 0
          0.13355027159624958 0.0034692284034622302 0
          0.14139814551559665 0.0041103373597761519 0
          0.14925292428810319 0.004660425682527238 0
          0.15711354895188145 0.0051194758982045022 0
          0.16497891055176495 0.0054885749664275391 0
          0.17284790250902857 0.0057698442405701477 0
          0.18071946696283425 0.0059663618072426051 0
          0.18859263373309923 0.0060820775574343755 0
          0.1964665509512897 0.0061217211909541788 0
          0.20434050679382781 0.0060907031564544304 0
          0.21221394212702707 0.0059950082969009843 0
          0.22008645423027634 0.0058410817240173865 0
          0.22795779210469014 0.0056357062073282655 0
          0.23582784419647554 0.0053858701585974746 0
          0.24369661966415596 0.0050986251468448616 0
          0.25156422458791045 0.0047809318194877151 0
          0.25943083474164602 0.0044394931578213117 0
          0.26729666669874791 0.0040805741846392804 0
          0.27516194908509878 0.003709807589603889 0
          0.2830268956822613 0.0033319852602217898 0
          0.29089168176641828 0.002950836412363596 0
          0.29875642448887307 0.0025687939056128432 0
        </DataArray>
      </Points>
      <Cells>
        <DataArray type="Int32" Name="connectivity" format="ascii">
          0 1 1 2 2 3 3 4 4 5 5 6 6 7 7 8 8 9 9 10 10 11 11 12 12 13 13 14 14 15 15 16 16 17 17 18 18 19 19 20 20 21 21 22 22 23 23 24 24 25 25 26 26 27 27 28 28 29 29 30 30 31 31 32 32 33 33 34 34 35 35 36 36 37 37 38 38 39 39 40 40 41 41 42 42 43 43 44 44 45 45 46 46 47 47 48 48 49 49 50 50 51 51 52 52 53 53 54 54 55 55 56 56 57 57 58 58 59 59 60 60 61 61 62 62 63 63 64 64 65 65 66 66 67 67 68 68 69 69 70 70 71 71 72 72 73 73 74 74 75 75 76 76 77 77 78 78 79 79 80 80 81 81 82 82 83 83 84 84 85 85 86 86 87 87 88 88 89 89 90 90 91 91 92 92 93 93 94 94 95 95 96 96 97 97 98 98 99 99 100 100 101 101 102 102 103 103 104 104 105 105 106 106 107 107 108 108 109 109 110 110 111 111 112 112 113 113 114 114 115 115 116 116 117 117 118 118 119 119 120 120 121 121 122 122 123 123 124 124 125 125 126 126 127 
        </DataArray>
        <DataArray type="Int32" Name="offsets" format="ascii">
          2 4 6 8 10 12 14 16 18 20 22 24 26 28 30 32 34 36 38 40 42 44 46 48 50 52 54 56 58 60 62 64 66 68 70 72 74 76 78 80 82 84 86 88 90 92 94 96 98 100 102 104 106 108 110 112 114 116 118 120 122 124 126 128 130 132 134 136 138 140 142 144 146 148 150 152 154 156 158 160 162 164 166 168 170 172 174 176 178 180 182 184 186 188 190 192 194 196 198 200 202 204 206 208 210 212 214 216 218 220 222 224 226 228 230 232 234 236 238 240 242 244 246 248 250 252 254 
        </DataArray>
        <DataArray type="Int32" Name="types" format="ascii">
          3 3 3 3 3 3 3 3 3 3 3 3 3 3 3 3 3 3 3 3 3 3 3 3 3 3 3 3 3 3 3 3 3 3 3 3 3 3 3 3 3 3 3 3 3 3 3 3 3 3 3 3 3 3 3 3 3 3 3 3 3 3 3 3 3 3 3 3 3 3 3 3 3 3 3 3 3 3 3 3 3 3 3 3 3 3 3 3 3 3 3 3 3 3 3 3 3 3 3 3 3 3 3 3 3 3 3 3 3 3 3 3 3 3 3 3 3 3 3 3 3 3 3 3 3 3 3         </DataArray>
      </Cells>
    </Piece>
  </UnstructuredGrid>
</VTKFile>
<!-- DATA


-->
