<?xml version="1.0"?>
<VTKFile type="UnstructuredGrid" version="0.1" byte_order="LittleEndian">
  <UnstructuredGrid>
    <Piece NumberOfPoints="128" NumberOfCells="127">
      <PointData Scalars="u">
        <DataArray type="Float32" Name="Y" NumberOfComponents="2">

0 0
0.1281580961162995 -0.094234689934374505
0.11560895954617709 -0.13697834485318103
0.10900510570139994 -0.17733766427110251
0.10764838983750186 -0.21474016118508538
0.11084371551822933 -0.24853154742011191
0.11783951140172091 -0.27808559523186033
0.12786791540897899 -0.30292075949730646
0.1402123017687292 -0.32281356334136274
0.15277164110950386 -0.33813256854746315
0.16702231654264199 -0.34857767304767578
0.18134645234851193 -0.3539148901753002
0.1937751382529225 -0.35492200259630491
0.20605567864397681 -0.35135450101333532
0.21549596208878935 -0.34424745008245927
0.22375535197141211 -0.33333103766487138
0.22862642328685215 -0.31995237817576339
0.23203713893208791 -0.3038384347855359
0.23195934271481863 -0.28699834090679244
0.23099648694352046 -0.26923873489804384
0.2277765916223437 -0.25299133758865033
0.22412387897290098 -0.23915659622626928
0.2217388476075062 -0.22719445551010964
0.2194036218670127 -0.21901988342921333
0.21976657996073221 -0.21367483609575533
0.22210081442336499 -0.2131207646536552
0.22887629559160635 -0.21666339894768422
0.23982651500813748 -0.22603828132890205
0.25700343255773095 -0.240411154098744
0.27991358906056613 -0.26129332573875508
0.30982171834341266 -0.2875434446174821
0.34550940702490551 -0.31983719694759161
0.38654286052410669 -0.35664415197180593
0.43087778812030564 -0.39695241415849591
0.47726904241651813 -0.44059720591245
0.52353911612716941 -0.48654393784387823
0.56705983336261712 -0.53273406637018872
0.60612738654014797 -0.57812878292539138
0.64038312123505314 -0.6224451942397109
0.66698890502977226 -0.66619930058996324
0.68554010348170702 -0.70679570424039151
0.69694522103330259 -0.74337487772004507
0.69775454737744458 -0.77767052492179889
0.6915562257785961 -0.8052522664026347
0.67334696518400616 -0.82803018181446086
0.64923966487883855 -0.83995066434536558
0.61312224842554575 -0.84337934399678982
0.57510357947001645 -0.83175730399445147
0.53335655278155447 -0.80674880723403886
0.48408687049048621 -0.76750914564873973
0.43499539987736779 -0.71158266319340746
0.3583357187052455 -0.65423694437384416
0.29183128673755587 -0.58567065990370015
0.23761786467755036 -0.50860416729358282
0.19471675457860935 -0.42639194192898755
0.16498920525315519 -0.34236751150713618
0.1470857610307062 -0.2598993358284899
0.13991033463432381 -0.18167161359119113
0.14271468679261864 -0.10979204581506499
0.15236633542923372 -0.044643866184420351
0.16945026663143634 0.013252042587161351
0.19130946227650791 0.065118173441587227
0.21911872482164799 0.11116945507876928
0.25091527607530217 0.15342871711868605
0.28774232693554025 0.19242188743839608
0.33019232354807676 0.22770787549546137
0.37722993024185725 0.25954109463021791
0.42867959006614825 0.28786117465636663
0.48526079703688052 0.31187647606702429
0.54611425166682492 0.33346255846022588
0.61305275165669171 0.3528849694454807
0.68733588576635785 0.37078102270152208
0.77033812080277075 0.38723752829420516
0.8631592501883435 0.40220028307366612
0.96676858040903968 0.41534544281186458
1.0819296009183146 0.42614479527296606
1.2096664596259104 0.43281436804503715
1.3502905005707355 0.43657199507072009
1.5057029351199624 0.43666940188720654
1.6773666961404503 0.43278902478129477
1.8665408628330384 0.42457928075269119
2.0742688231506112 0.41174125710935061
2.3013410613768559 0.39422438576828689
2.548272740229788 0.37198938116281305
2.8152092781160882 0.34542724578443723
3.1020063851661548 0.31532018412628687
3.4081993468779324 0.28292242836301412
3.7329701146003713 0.25001087194218113
4.0751096851546 0.21890426362719029
4.4329809525680499 0.19248979552853335
4.8044719642444562 0.1743206013431633
5.1868753538835142 0.16824145282668473
5.5768616810726215 0.1783503395147478
5.9705805613581386 0.209008716324701
6.363721905027937 0.26455734506814588
6.7516338781694047 0.34909188500164778
7.1295177606620479 0.46628201370405292
7.4926811828634206 0.61922755630725468
7.8368439870523794 0.81033082258669431
8.1584756972189254 1.0413363222611731
8.4551093813771256 1.3134869067276349
8.7255617264933321 1.6278179557177903
8.9695360570074723 1.9876711616603278
9.1858921638921487 2.3970793371635923
9.3750636218607877 2.8533341612316905
9.5364974759441257 3.359583966418215
9.6686819219162334 3.9193892870103308
9.7677298131632835 4.5366493030136974
9.8259589707345185 5.2145314898198292
9.8305531384297886 5.9538134175099637
9.7627265845889433 6.7500756288388306
9.5988680604680052 7.589580815386336
9.3138316551726916 8.4444465780849622
8.8902491526237313 9.2693313721306367
8.3136388284282567 10.01258049173642
7.5833290793680908 10.61077256220217
6.720669553344929 10.992072606327671
5.7691055451294107 11.090088048092577
4.7773491306017544 10.858131364516201
3.8071008964617521 10.269447759000203
2.9069188209590662 9.3292756187049264
2.1129951347942626 8.0681275311263292
1.4631342396589253 6.5442530299681714
0.94235644141477248 4.8545513996891856
0.56509909266469038 3.1360866770070053
0.26522809088379418 1.5942601388528101
0.055534249336080831 0.46481365067287944
0 0

        </DataArray>
        <DataArray type="Float32" Name="W" NumberOfComponents="2">

-41.483531496396836 13.022280189026571
-41.476118598114738 13.019620240914163
-41.46856423242226 13.017393791051978
-41.460895710135105 13.015599798041098
-41.45313926108512 13.014235518336429
-41.445319965006284 13.01329664761068
-41.437461693128832 13.012777479883693
-41.429587066928143 13.012671024450833
-41.421717425959095 13.012969215793371
-41.413872842328338 13.01366331402353
-41.406071562654581 13.014739595329791
-41.398330662533191 13.016187316023403
-41.390665986894859 13.017995427251495
-41.383090876222859 13.020147935721978
-41.375618258204788 13.022632821399805
-41.36825819121038 13.025433386048283
-41.361020621429368 13.028536676381956
-41.353912250169067 13.031925327237991
-41.3469403777883 13.035586470812852
-41.340108149368767 13.039501915022489
-41.333420049156487 13.043658650523811
-41.326876017305182 13.04803858948018
-41.320473694185075 13.052623080795952
-41.314212933663825 13.057398987825691
-41.308087713822076 13.062347443256868
-41.302094884719331 13.067455347340612
-41.296225065023307 13.072704069557103
-41.290471666318993 13.078080081764375
-41.284821524951973 13.083564449715405
-41.279265363001095 13.089143949248022
-41.273785736622372 13.09479858306158
-41.268370424003322 13.100514798640525
-41.262998384978452 13.106271671296014
-41.257654761968681 13.112054911939651
-41.252323193783695 13.117849263274604
-41.246979490110604 13.123632435453215
-41.241605867253412 13.129387845547045
-41.236185131147394 13.135098950500529
-41.23069942981504 13.140747750725945
-41.225123275549386 13.14630737292218
-41.219440463123036 13.15175804656605
-41.213634911483808 13.157077949402016
-41.207683487265918 13.162234332451003
-41.2015739333958 13.167202567792591
-41.195286879399184 13.171944471572287
-41.188815067179014 13.176431278855317
-41.182145370148916 13.18061870746897
-41.175277851135775 13.184473673306433
-41.168208657438313 13.187945699287313
-41.160940635108005 13.190980505065768
-41.153491197439109 13.193539140502331
-41.145879051589198 13.195562694858598
-41.13814473276711 13.19705217102536
-41.130327119558814 13.19801223893692
-41.122462962752735 13.198448550573284
-41.114587180049043 13.198371862996565
-41.106732409020672 13.19779311336919
-41.098929202146053 13.196724955476588
-41.091206049853866 13.195181378042308
-41.083589968406393 13.193175426496429
-41.076105498816865 13.190723861638704
-41.068776150483515 13.187841653777282
-41.061622747387972 13.184547055769052
-41.054665504227678 13.180856327826888
-41.047921379045768 13.176789305218506
-41.041405334553012 13.172366152460839
-41.035132109086383 13.16760495442634
-41.029114835076982 13.162524202072493
-41.023365060268283 13.157142660004805
-41.017895194539115 13.151476906461626
-41.012713898167306 13.145546169546044
-41.00782813509273 13.139369758758461
-41.003242879584064 13.13296715049594
-40.998961534316244 13.126357518262628
-40.994985688331518 13.119559801085462
-40.991315042884139 13.112592607818831
-40.987947436078983 13.105474061091206
-40.984882366683486 13.098220174967313
-40.98211416705611 13.090847958806123
-40.979635226689346 13.083373582576616
-40.977435995461342 13.07581225080237
-40.975504977564199 13.068178089952005
-40.973828742627411 13.060484043489526
-40.972391632793098 13.052741840807355
-40.971176446818518 13.044961789380171
-40.970164199372533 13.037152810016897
-40.969334208551373 13.029322426750459
-40.968664199689783 13.021476795031067
-40.968130425503809 13.013620771998122
-40.967707833199583 13.005758029635151
-40.967370158442776 12.997891218674289
-40.967089723950643 12.990022184226511
-40.966838435578531 12.982152177841169
-40.966587608208748 12.974282156072578
-40.966308205983417 12.966413081847522
-40.965971097489245 12.958546238128619
-40.965547357425464 12.950683538714452
-40.965008452999108 12.942827830178915
-40.964326527115155 12.934983164633948
-40.963474611912439 12.927155041807547
-40.962426791440485 12.919350618104328
-40.96115829566471 12.911578889368617
-40.959645515949767 12.903850861851193
-40.957860209798014 12.896181063197591
-40.955781410353197 12.888585404670398
-40.95338871607823 12.881082552378285
-40.950662752819788 12.873694100414738
-40.947585220345019 12.866444884982203
-40.944139069780739 12.859363327510582
-40.940308939879863 12.852481730501841
-40.936081425456543 12.845836733496876
-40.931447174432009 12.839468621518993
-40.926401466275308 12.833421235236072
-40.920951783250537 12.827735154044204
-40.915112621345706 12.822449808957359
-40.90890649206893 12.817600642794202
-40.902364964407845 12.81321448880885
-40.895530801974864 12.809299978621628
-40.888448337988365 12.805855126274304
-40.881164978170112 12.802858440473617
-40.873725307157521 12.800274243729833
-40.866165597548239 12.798065787592245
-40.858523430040051 12.796162140857696
-40.850824586401075 12.794502281844821
-40.843106363549531 12.792934698752406
-40.835390289819877 12.791356102045519
-40.827693239228132 12.789686600473487
-40.820017268988302 12.787921893042496

        </DataArray>
        <DataArray type="Float32" Name="u" NumberOfComponents="1">
          0 0.007874015748031496 0.015748031496062992 0.023622047244094488 0.031496062992125984 0.03937007874015748 0.047244094488188976 0.055118110236220472 0.062992125984251968 0.070866141732283464 0.07874015748031496 0.086614173228346455 0.094488188976377951 0.10236220472440945 0.11023622047244094 0.11811023622047244 0.12598425196850394 0.13385826771653545 0.14173228346456693 0.14960629921259844 0.15748031496062992 0.16535433070866143 0.17322834645669291 0.18110236220472442 0.1889763779527559 0.19685039370078741 0.20472440944881889 0.2125984251968504 0.22047244094488189 0.2283464566929134 0.23622047244094488 0.24409448818897639 0.25196850393700787 0.25984251968503935 0.26771653543307089 0.27559055118110237 0.28346456692913385 0.29133858267716534 0.29921259842519687 0.30708661417322836 0.31496062992125984 0.32283464566929132 0.33070866141732286 0.33858267716535434 0.34645669291338582 0.3543307086614173 0.36220472440944884 0.37007874015748032 0.37795275590551181 0.38582677165354329 0.39370078740157483 0.40157480314960631 0.40944881889763779 0.41732283464566927 0.42519685039370081 0.43307086614173229 0.44094488188976377 0.44881889763779526 0.45669291338582679 0.46456692913385828 0.47244094488188976 0.48031496062992124 0.48818897637795278 0.49606299212598426 0.50393700787401574 0.51181102362204722 0.51968503937007871 0.52755905511811019 0.53543307086614178 0.54330708661417326 0.55118110236220474 0.55905511811023623 0.56692913385826771 0.57480314960629919 0.58267716535433067 0.59055118110236215 0.59842519685039375 0.60629921259842523 0.61417322834645671 0.62204724409448819 0.62992125984251968 0.63779527559055116 0.64566929133858264 0.65354330708661412 0.66141732283464572 0.6692913385826772 0.67716535433070868 0.68503937007874016 0.69291338582677164 0.70078740157480313 0.70866141732283461 0.71653543307086609 0.72440944881889768 0.73228346456692917 0.74015748031496065 0.74803149606299213 0.75590551181102361 0.76377952755905509 0.77165354330708658 0.77952755905511806 0.78740157480314965 0.79527559055118113 0.80314960629921262 0.8110236220472441 0.81889763779527558 0.82677165354330706 0.83464566929133854 0.84251968503937003 0.85039370078740162 0.8582677165354331 0.86614173228346458 0.87401574803149606 0.88188976377952755 0.88976377952755903 0.89763779527559051 0.90551181102362199 0.91338582677165359 0.92125984251968507 0.92913385826771655 0.93700787401574803 0.94488188976377951 0.952755905511811 0.96062992125984248 0.96850393700787396 0.97637795275590555 0.98425196850393704 0.99212598425196852 1
        </DataArray>
      </PointData>
      <CellData Scalars="P">
        <DataArray type="Float32" Name="P" NumberOfComponents="1">
          0.022020150777518236 0.09110397918799136 0.18055680380029063 0.28849087539477825 0.41477546869852688 0.56011313603935731 0.72515405714046233 0.90982258229931057 1.1126015828236251 1.3270193247137605 1.5576885324537548 1.8042038886416969 2.0584753129807214 2.3241595678885694 2.593343235927934 2.8689878651575684 3.1421006359657087 3.4154479636262858 3.6764485898415544 3.9272587859930703 4.1542357355069042 4.3532101172120701 4.5301917361983222 4.676754374233397 4.7983331816758907 4.8892037360849301 4.9542136107647803 4.9930195040085996 5.011821285806402 5.0172596409778363 5.0160519149988856 5.0227612664555101 5.040992914402576 5.0782474927322827 5.150993348714314 5.2525860244606335 5.3812892271245882 5.5371108580456516 5.7328912364552433 5.9469465502935339 6.1753152159721658 6.4301625015135855 6.6864691459253827 6.954273231303195 7.2026997586270349 7.4385972990683884 7.6299585114140083 7.787717252079303 7.8962080682404254 7.9191937534160655 7.8855102388035387 7.7964025540908599 7.6629176208127374 7.5028008515251488 7.3322343198535043 7.1697161458000567 7.0298722515126686 6.9226158476735238 6.8529741877650299 6.8168726898173571 6.809749600847752 6.820623734956996 6.8411200325162884 6.858233415102057 6.865730089683832 6.8639840645361652 6.8519528655974176 6.8279090803571583 6.789141341986026 6.724774891485211 6.6245664367178936 6.4799700176344697 6.284849488576814 6.0352098436961947 5.7292409137557581 5.3673478938677439 4.9464571691651154 4.4667290081067579 3.9268677654813802 3.328659031092255 2.6770876499000273 1.9804339778472178 1.2514352258936225 0.50468996333491989 -0.24117458028634051 -0.96474163628429965 -1.6422960986315172 -2.2485435180140598 -2.7577371355987155 -3.1443931899051383 -3.3826505719755788 -3.4547931939572738 -3.3459513100687879 -3.0476113431206371 -2.5583519354738389 -1.8841366307164249 -1.0366957055225681 -0.032463687818353751 1.1104301599945923 2.375695523133265 3.7528497448431581 5.2411377889806303 6.8859015217967512 8.6656033611631145 10.610817155639088 12.760298405628141 15.158964919518287 17.849168559894331 20.856583782362943 24.174430227821535 27.724058456152864 31.343242347373792 34.701588493048995 37.438611314574906 39.123236950686291 39.301611884532726 37.621737346483449 33.936213431264939 28.406597994242738 21.46636283419825 13.550101243341475 5.9896094501658208 -0.74864163482839308 -3.4410534282233294 -3.2121923164505457 -1.247361099814617 -0.022233524093198356
        </DataArray>
      </CellData>
      <Points>
        <DataArray type="Float32" NumberOfComponents="3" format="ascii">
          -41.483531496396836 13.022280189026571 0
          -41.476118598114738 13.019620240914163 0
          -41.46856423242226 13.017393791051978 0
          -41.460895710135105 13.015599798041098 0
          -41.45313926108512 13.014235518336429 0
          -41.445319965006284 13.01329664761068 0
          -41.437461693128832 13.012777479883693 0
          -41.429587066928143 13.012671024450833 0
          -41.421717425959095 13.012969215793371 0
          -41.413872842328338 13.01366331402353 0
          -41.406071562654581 13.014739595329791 0
          -41.398330662533191 13.016187316023403 0
          -41.390665986894859 13.017995427251495 0
          -41.383090876222859 13.020147935721978 0
          -41.375618258204788 13.022632821399805 0
          -41.36825819121038 13.025433386048283 0
          -41.361020621429368 13.028536676381956 0
          -41.353912250169067 13.031925327237991 0
          -41.3469403777883 13.035586470812852 0
          -41.340108149368767 13.039501915022489 0
          -41.333420049156487 13.043658650523811 0
          -41.326876017305182 13.04803858948018 0
          -41.320473694185075 13.052623080795952 0
          -41.314212933663825 13.057398987825691 0
          -41.308087713822076 13.062347443256868 0
          -41.302094884719331 13.067455347340612 0
          -41.296225065023307 13.072704069557103 0
          -41.290471666318993 13.078080081764375 0
          -41.284821524951973 13.083564449715405 0
          -41.279265363001095 13.089143949248022 0
          -41.273785736622372 13.09479858306158 0
          -41.268370424003322 13.100514798640525 0
          -41.262998384978452 13.106271671296014 0
          -41.257654761968681 13.112054911939651 0
          -41.252323193783695 13.117849263274604 0
          -41.246979490110604 13.123632435453215 0
          -41.241605867253412 13.129387845547045 0
          -41.236185131147394 13.135098950500529 0
          -41.23069942981504 13.140747750725945 0
          -41.225123275549386 13.14630737292218 0
          -41.219440463123036 13.15175804656605 0
          -41.213634911483808 13.157077949402016 0
          -41.207683487265918 13.162234332451003 0
          -41.2015739333958 13.167202567792591 0
          -41.195286879399184 13.171944471572287 0
          -41.188815067179014 13.176431278855317 0
          -41.182145370148916 13.18061870746897 0
          -41.175277851135775 13.184473673306433 0
          -41.168208657438313 13.187945699287313 0
          -41.160940635108005 13.190980505065768 0
          -41.153491197439109 13.193539140502331 0
          -41.145879051589198 13.195562694858598 0
          -41.13814473276711 13.19705217102536 0
          -41.130327119558814 13.19801223893692 0
          -41.122462962752735 13.198448550573284 0
          -41.114587180049043 13.198371862996565 0
          -41.106732409020672 13.19779311336919 0
          -41.098929202146053 13.196724955476588 0
          -41.091206049853866 13.195181378042308 0
          -41.083589968406393 13.193175426496429 0
          -41.076105498816865 13.190723861638704 0
          -41.068776150483515 13.187841653777282 0
          -41.061622747387972 13.184547055769052 0
          -41.054665504227678 13.180856327826888 0
          -41.047921379045768 13.176789305218506 0
          -41.041405334553012 13.172366152460839 0
          -41.035132109086383 13.16760495442634 0
          -41.029114835076982 13.162524202072493 0
          -41.023365060268283 13.157142660004805 0
          -41.017895194539115 13.151476906461626 0
          -41.012713898167306 13.145546169546044 0
          -41.00782813509273 13.139369758758461 0
          -41.003242879584064 13.13296715049594 0
          -40.998961534316244 13.126357518262628 0
          -40.994985688331518 13.119559801085462 0
          -40.991315042884139 13.112592607818831 0
          -40.987947436078983 13.105474061091206 0
          -40.984882366683486 13.098220174967313 0
          -40.98211416705611 13.090847958806123 0
          -40.979635226689346 13.083373582576616 0
          -40.977435995461342 13.07581225080237 0
          -40.975504977564199 13.068178089952005 0
          -40.973828742627411 13.060484043489526 0
          -40.972391632793098 13.052741840807355 0
          -40.971176446818518 13.044961789380171 0
          -40.970164199372533 13.037152810016897 0
          -40.969334208551373 13.029322426750459 0
          -40.968664199689783 13.021476795031067 0
          -40.968130425503809 13.013620771998122 0
          -40.967707833199583 13.005758029635151 0
          -40.967370158442776 12.997891218674289 0
          -40.967089723950643 12.990022184226511 0
          -40.966838435578531 12.982152177841169 0
          -40.966587608208748 12.974282156072578 0
          -40.966308205983417 12.966413081847522 0
          -40.965971097489245 12.958546238128619 0
          -40.965547357425464 12.950683538714452 0
          -40.965008452999108 12.942827830178915 0
          -40.964326527115155 12.934983164633948 0
          -40.963474611912439 12.927155041807547 0
          -40.962426791440485 12.919350618104328 0
          -40.96115829566471 12.911578889368617 0
          -40.959645515949767 12.903850861851193 0
          -40.957860209798014 12.896181063197591 0
          -40.955781410353197 12.888585404670398 0
          -40.95338871607823 12.881082552378285 0
          -40.950662752819788 12.873694100414738 0
          -40.947585220345019 12.866444884982203 0
          -40.944139069780739 12.859363327510582 0
          -40.940308939879863 12.852481730501841 0
          -40.936081425456543 12.845836733496876 0
          -40.931447174432009 12.839468621518993 0
          -40.926401466275308 12.833421235236072 0
          -40.920951783250537 12.827735154044204 0
          -40.915112621345706 12.822449808957359 0
          -40.90890649206893 12.817600642794202 0
          -40.902364964407845 12.81321448880885 0
          -40.895530801974864 12.809299978621628 0
          -40.888448337988365 12.805855126274304 0
          -40.881164978170112 12.802858440473617 0
          -40.873725307157521 12.800274243729833 0
          -40.866165597548239 12.798065787592245 0
          -40.858523430040051 12.796162140857696 0
          -40.850824586401075 12.794502281844821 0
          -40.843106363549531 12.792934698752406 0
          -40.835390289819877 12.791356102045519 0
          -40.827693239228132 12.789686600473487 0
          -40.820017268988302 12.787921893042496 0
        </DataArray>
      </Points>
      <Cells>
        <DataArray type="Int32" Name="connectivity" format="ascii">
          0 1 1 2 2 3 3 4 4 5 5 6 6 7 7 8 8 9 9 10 10 11 11 12 12 13 13 14 14 15 15 16 16 17 17 18 18 19 19 20 20 21 21 22 22 23 23 24 24 25 25 26 26 27 27 28 28 29 29 30 30 31 31 32 32 33 33 34 34 35 35 36 36 37 37 38 38 39 39 40 40 41 41 42 42 43 43 44 44 45 45 46 46 47 47 48 48 49 49 50 50 51 51 52 52 53 53 54 54 55 55 56 56 57 57 58 58 59 59 60 60 61 61 62 62 63 63 64 64 65 65 66 66 67 67 68 68 69 69 70 70 71 71 72 72 73 73 74 74 75 75 76 76 77 77 78 78 79 79 80 80 81 81 82 82 83 83 84 84 85 85 86 86 87 87 88 88 89 89 90 90 91 91 92 92 93 93 94 94 95 95 96 96 97 97 98 98 99 99 100 100 101 101 102 102 103 103 104 104 105 105 106 106 107 107 108 108 109 109 110 110 111 111 112 112 113 113 114 114 115 115 116 116 117 117 118 118 119 119 120 120 121 121 122 122 123 123 124 124 125 125 126 126 127 
        </DataArray>
        <DataArray type="Int32" Name="offsets" format="ascii">
          2 4 6 8 10 12 14 16 18 20 22 24 26 28 30 32 34 36 38 40 42 44 46 48 50 52 54 56 58 60 62 64 66 68 70 72 74 76 78 80 82 84 86 88 90 92 94 96 98 100 102 104 106 108 110 112 114 116 118 120 122 124 126 128 130 132 134 136 138 140 142 144 146 148 150 152 154 156 158 160 162 164 166 168 170 172 174 176 178 180 182 184 186 188 190 192 194 196 198 200 202 204 206 208 210 212 214 216 218 220 222 224 226 228 230 232 234 236 238 240 242 244 246 248 250 252 254 
        </DataArray>
        <DataArray type="Int32" Name="types" format="ascii">
          3 3 3 3 3 3 3 3 3 3 3 3 3 3 3 3 3 3 3 3 3 3 3 3 3 3 3 3 3 3 3 3 3 3 3 3 3 3 3 3 3 3 3 3 3 3 3 3 3 3 3 3 3 3 3 3 3 3 3 3 3 3 3 3 3 3 3 3 3 3 3 3 3 3 3 3 3 3 3 3 3 3 3 3 3 3 3 3 3 3 3 3 3 3 3 3 3 3 3 3 3 3 3 3 3 3 3 3 3 3 3 3 3 3 3 3 3 3 3 3 3 3 3 3 3 3 3         </DataArray>
      </Cells>
    </Piece>
  </UnstructuredGrid>
</VTKFile>
<!-- DATA


-->
