<?xml version="1.0"?>
<VTKFile type="UnstructuredGrid" version="0.1" byte_order="LittleEndian">
  <UnstructuredGrid>
    <Piece NumberOfPoints="128" NumberOfCells="127">
      <PointData Scalars="u">
        <DataArray type="Float32" Name="Y" NumberOfComponents="2">

0 0
0.006107565176035233 -0.010371433528739666
0.017205820102779216 -0.0090739882353952153
0.032536413819263893 -0.0041447049243155858
0.048898212089300348 0.0038297900019451494
0.063825764651169251 0.013985750850421154
0.075569078049541147 0.025213350370892101
0.083067514836532033 0.036235174231260797
0.085905899322267304 0.045716374871636357
0.084244638777711753 0.052388385505748154
0.078721227471094821 0.055167708989971927
0.070326652560486716 0.053253239012534669
0.060265641179894733 0.046189755910075028
0.049813265428033403 0.033891046152553693
0.040181509642170155 0.016622509748735609
0.032407953623664401 -0.0050510043170867627
0.027275247086916362 -0.030342044559257587
0.025265445121737631 -0.058329769635901668
0.02654855550047153 -0.088049213615344277
0.031000713228987294 -0.11857017692590373
0.038244816477422977 -0.14905844031371734
0.047705426011582196 -0.17881561487046993
0.058670093960543623 -0.20729738047227836
0.070350649766815779 -0.2341126582871802
0.081939832405789781 -0.25900817789439623
0.092660538049886734 -0.28184390891875138
0.10180646725300331 -0.30256503854119926
0.10877388088265082 -0.32117574326006509
0.11308444068806527 -0.33771905977989541
0.11439881780735305 -0.35226578031485312
0.11252013831352208 -0.36491350746822832
0.10738576571374844 -0.37579482186176333
0.099045835559705794 -0.38509103371268749
0.087627807472505398 -0.39304545122854839
0.073288422352793772 -0.39996796005749019
0.056157935596611794 -0.40622162884487695
0.036286031206785779 -0.41218280097976207
0.013603595662265872 -0.41816936733308946
-0.012081714539242021 -0.42433791693449707
-0.04103698597222024 -0.43055883913409077
-0.073486308176156284 -0.4362879444629289
-0.10941505584962152 -0.4404616876657515
-0.14829963829319204 -0.44144799036238208
-0.18878127320021978 -0.43708339477615971
-0.22831743584624328 -0.42481804300812215
-0.26285590293475897 -0.40197245242169172
-0.28657992489929818 -0.36608582834122017
-0.2917662948093771 -0.31530811839094464
-0.26878033064689638 -0.2487617563544339
-0.20620535479245375 -0.16677866536379221
-0.091074536313044394 -0.070906786941779515
0.084942526982139777 0.047120002923234504
0.32529176294041545 0.18123425204251811
0.60908793922263416 0.34272331592338834
0.92449071040543618 0.52868078111583972
1.260042569172805 0.73728705890781721
1.6046624473275444 0.96742553318116886
1.9476731004757739 1.2182701940501541
2.2788638350046151 1.4888770027145455
2.5885932285115403 1.7778073474960141
2.8679354368955994 2.0828089923527138
3.1088692808701928 2.4005771123612174
3.3045026053316646 2.7266144963400736
3.4493166726692217 3.0552049841214384
3.5394080264750252 3.3795071797933378
3.5726998494991284 3.6917663939564269
3.5490926972950714 3.9836321764281228
3.4705265798017253 4.2465578599140708
3.3409329855826768 4.4722488494794295
3.1660660697176497 4.6531196940917052
2.9532154883860957 4.7827177291575218
2.7108172586488366 4.856074079558498
2.4479912987109218 4.8699509273833366
2.1740429305576212 4.8229660738173727
1.8979692567991064 4.7155900783928955
1.6280095497516338 4.5500253995736211
1.3712722266421826 4.3299888507415938
1.1334610240700407 4.0604267458987895
0.91871147495284711 3.7471955646318569
0.72953757858248303 3.3967399117467236
0.56687913205540663 3.0157947949535586
0.43023348993535204 2.611132044444473
0.31785182092072012 2.1893624388049648
0.22697898999120297 1.7567970328555942
0.15411739421416576 1.3193642534082075
0.095297636781632986 0.88257411707792677
0.046342086187202737 0.4515176570849746
0.0031105142767575817 0.030888276931805164
-0.038280251036728268 -0.37498795492022796
-0.081268562281497175 -0.76212442444565109
-0.12869638141506098 -1.1268572647632464
-0.18269700714055967 -1.4658453914666063
-0.24462418422610574 -1.7760894221633337
-0.31502360755845632 -2.0549682906168658
-0.39364653588353193 -2.3002894391397288
-0.47950363590967282 -2.5103462173865605
-0.57095531638599561 -2.6839747403679581
-0.66583283768041157 -2.8206020856945226
-0.76158261623686696 -2.9202783569541508
-0.85542465087170272 -2.9836867033640271
-0.94451511913706099 -3.0121276495704641
-1.0261030997994913 -3.0074767492935468
-1.0976721339798921 -2.9721172839312806
-1.1570588854431285 -2.9088521408575496
-1.2025433239951067 -2.8208008461999032
-1.2329073852364789 -2.7112888110529085
-1.2474616606741988 -2.5837361189801129
-1.2460420702971979 -2.4415526918073107
-1.2289804388490453 -2.2880455726423041
-1.197054293030748 -2.1263425706007837
-1.1514219643741872 -1.9593348497875047
-1.0935492445387978 -1.789639427318324
-1.0251334842867565 -1.6195811356683614
-0.94803027794441308 -1.4511925073267584
-0.86418686670780598 -1.286229296251812
-0.77558525838401171 -1.1261989444171305
-0.68419690577485315 -0.97239917641825913
-0.59194969512460904 -0.82596397703307012
-0.50070702854802274 -0.68791438178144015
-0.41225797581636109 -0.55921169916138169
-0.32831684287268598 -0.44081090775024773
-0.25053006846642351 -0.33371197393704954
-0.18048812178917856 -0.23900668218044899
-0.11974003252516784 -0.15791825027001888
-0.069808332741983573 -0.091830532508203291
-0.03220250433669089 -0.042303034782553518
-0.0084294548789996225 -0.011067344087202049
0 0

        </DataArray>
        <DataArray type="Float32" Name="W" NumberOfComponents="2">

-2.5283510662986619 1.128156790224643
-2.5253371368827779 1.1208824141429428
-2.5219770806515176 1.1137612883524279
-2.518238801539078 1.1068312248288765
-2.5140975593047683 1.1001341562341787
-2.5095370184858541 1.093715263468271
-2.5045500400211287 1.0876217539708839
-2.4991391406635191 1.0819013462088158
-2.4933165573102056 1.0766005452818612
-2.4871038754929615 1.0717628179339318
-2.4805312114889237 1.0674267892680993
-2.4736359724317585 1.0636245858113407
-2.4664612541097739 1.0603804393319667
-2.459053967286696 1.0577096437487115
-2.451462806353939 1.0556179260269092
-2.4437361860962143 1.0541012549046835
-2.4359202721386559 1.0531460731328135
-2.4280572188245362 1.0527299041574847
-2.420183706999441 1.0528222566533139
-2.4123298467074505 1.053385732642639
-2.4045184798809993 1.0543772382524315
-2.3967648893207572 1.0557492001248392
-2.3890768955214239 1.0574507035462528
-2.3814553040769177 1.059428488100626
-2.3738946542089461 1.0616277603190292
-2.3663842130443737 1.0639928076585452
-2.3589091594204072 1.0664674218093719
-2.3514519035186288 1.0689951599176477
-2.3439934926681318 1.0715194884918378
-2.3365150575431999 1.073983865701061
-2.3289992554801628 1.0763318230478611
-2.3214316681261025 1.0785071068913152
-2.3138021091565966 1.0804539341511172
-2.3061057950444508 1.0821174051331324
-2.2983443290129841 1.0834441004648359
-2.2905264468414579 1.0843828696405158
-2.2826684746019166 1.0848857970499086
-2.274794453924923 1.0849093093441777
-2.2669359007233143 1.0844153675603563
-2.2591311784555783 1.0833726706075604
-2.2514244862312474 1.0817577853500779
-2.2438644839092357 1.0795561140010239
-2.2365025988772937 1.0767626126328207
-2.2293910802558319 1.0733821853590491
-2.2225808837224368 1.06942969648266
-2.2161194821783821 1.0649295663931295
-2.2100487027070295 1.0599149445928255
-2.2044026878738801 1.0544264831178256
-2.1992060691113036 1.048510763967476
-2.1944724219961276 1.0422184632972293
-2.1902030485334714 1.0356023616725967
-2.1863861016568835 1.028715332679762
-2.1825638894251385 1.0218312271231389
-2.1787215099826716 1.0149583598189389
-2.1748413677496066 1.0081067427797878
-2.1709039075275731 1.0012879050306802
-2.1668883248658011 0.99451477980960412
-2.1627732530857502 0.98780163535361154
-2.1585374252680314 0.98116402370316458
-2.1541603073141107 0.97461872218879886
-2.14962269571549 0.96818364425361703
-2.1449072709603683 0.96187769982945359
-2.1399990948549918 0.95572059044976576
-2.134886037849411 0.94973253043058259
-2.1295591212146241 0.94393389247146053
-2.1240127590742937 0.93834478348575989
-2.1182448871850834 0.93298456380024031
-2.11225696911804 0.92787132941120576
-2.1060538759898715 0.92302138206986839
-2.0996436427167979 0.91844871499253244
-2.0930371112561184 0.9141645425362559
-2.0862474786393435 0.91017690010833296
-2.0792897739240757 0.90649033607422991
-2.0721802927384925 0.90310571099661552
-2.0649360203272109 0.90002011192967557
-2.0575740737054988 0.89722688159183517
-2.0501111907999774 0.8947157549232112
-2.042563289705372 0.89247308953891036
-2.0349451150359461 0.89048217241550898
-2.0272699815108628 0.8887235830099719
-2.0195496180801431 0.8871755928425662
-2.011794109656309 0.88581458308328087
-2.0040119282818991 0.88461546441848005
-1.9962100415640056 0.88355208692879383
-1.9883940835021514 0.88259763138027048
-1.9805685713507899 0.88172497678886563
-1.972737151733853 0.88090704204026749
-1.9649028596700922 0.88011710153026013
-1.9570683752792091 0.87932907615043565
-1.9492362645499908 0.87851780149844605
-1.9414091925288584 0.87765927504226104
-1.9335900995312125 0.8767308832750349
-1.9257823334144286 0.8757116088589576
-1.9179897335170428 0.87458221658543067
-1.9102166644971019 0.87332541588160228
-1.9024680009134955 0.87192599675120808
-1.8947490658883948 0.87037093559065015
-1.8870655294514254 0.8686494673546088
-1.8794232740743946 0.86675312108233737
-1.8718282363436431 0.86467571679606237
-1.8642862345928037 0.86241332314966124
-1.8568027925774289 0.85996417679868553
-1.8493829689088617 0.85732856611688468
-1.8420312010247741 0.85450868343180664
-1.8347511710538997 0.85150845124311636
-1.8275456991668682 0.84833332880788725
-1.8204166680504377 0.84499010596002411
-1.8133649801601603 0.84148669105950158
-1.8063905475452642 0.83783189957167181
-1.7994923124214131 0.83403524902557513
-1.7926682953785833 0.83010676508567993
-1.7859156672001513 0.82605680229680067
-1.7792308397454779 0.82189588182744033
-1.7726095711897747 0.81763454732987439
-1.7660470810753355 0.81328323892398213
-1.7595381710448268 0.80885218434225237
-1.7530773477297905 0.80435130547073197
-1.7466589449842103 0.79979013789271913
-1.7402772434162759 0.79517776058427792
-1.7339265859213779 0.79052273261229256
-1.7276014886057272 0.78583303353508926
-1.7212967470738947 0.78111600419490435
-1.7150075385079862 0.77637828472050219
-1.7087295202762729 0.77162574683655261
-1.7024589259723621 0.76686341802378666
-1.6961926598115404 0.76209539571953555
-1.6899283902182687 0.75732475062792393
-1.6836646432544884 0.75255341936124764

        </DataArray>
        <DataArray type="Float32" Name="u" NumberOfComponents="1">
          0 0.007874015748031496 0.015748031496062992 0.023622047244094488 0.031496062992125984 0.03937007874015748 0.047244094488188976 0.055118110236220472 0.062992125984251968 0.070866141732283464 0.07874015748031496 0.086614173228346455 0.094488188976377951 0.10236220472440945 0.11023622047244094 0.11811023622047244 0.12598425196850394 0.13385826771653545 0.14173228346456693 0.14960629921259844 0.15748031496062992 0.16535433070866143 0.17322834645669291 0.18110236220472442 0.1889763779527559 0.19685039370078741 0.20472440944881889 0.2125984251968504 0.22047244094488189 0.2283464566929134 0.23622047244094488 0.24409448818897639 0.25196850393700787 0.25984251968503935 0.26771653543307089 0.27559055118110237 0.28346456692913385 0.29133858267716534 0.29921259842519687 0.30708661417322836 0.31496062992125984 0.32283464566929132 0.33070866141732286 0.33858267716535434 0.34645669291338582 0.3543307086614173 0.36220472440944884 0.37007874015748032 0.37795275590551181 0.38582677165354329 0.39370078740157483 0.40157480314960631 0.40944881889763779 0.41732283464566927 0.42519685039370081 0.43307086614173229 0.44094488188976377 0.44881889763779526 0.45669291338582679 0.46456692913385828 0.47244094488188976 0.48031496062992124 0.48818897637795278 0.49606299212598426 0.50393700787401574 0.51181102362204722 0.51968503937007871 0.52755905511811019 0.53543307086614178 0.54330708661417326 0.55118110236220474 0.55905511811023623 0.56692913385826771 0.57480314960629919 0.58267716535433067 0.59055118110236215 0.59842519685039375 0.60629921259842523 0.61417322834645671 0.62204724409448819 0.62992125984251968 0.63779527559055116 0.64566929133858264 0.65354330708661412 0.66141732283464572 0.6692913385826772 0.67716535433070868 0.68503937007874016 0.69291338582677164 0.70078740157480313 0.70866141732283461 0.71653543307086609 0.72440944881889768 0.73228346456692917 0.74015748031496065 0.74803149606299213 0.75590551181102361 0.76377952755905509 0.77165354330708658 0.77952755905511806 0.78740157480314965 0.79527559055118113 0.80314960629921262 0.8110236220472441 0.81889763779527558 0.82677165354330706 0.83464566929133854 0.84251968503937003 0.85039370078740162 0.8582677165354331 0.86614173228346458 0.87401574803149606 0.88188976377952755 0.88976377952755903 0.89763779527559051 0.90551181102362199 0.91338582677165359 0.92125984251968507 0.92913385826771655 0.93700787401574803 0.94488188976377951 0.952755905511811 0.96062992125984248 0.96850393700787396 0.97637795275590555 0.98425196850393704 0.99212598425196852 1
        </DataArray>
      </PointData>
      <CellData Scalars="P">
        <DataArray type="Float32" Name="P" NumberOfComponents="1">
          0.0030437754700057378 0.082559353786265735 0.22425821216429923 0.41235664148966539 0.62876811110379194 0.85499534370161245 1.0736531500581625 1.2696177583425423 1.430814416305322 1.5486668907286305 1.6182424539160787 1.6381347087570395 1.6101337361966421 1.5387376658342491 1.4305610640788313 1.293693157010257 1.1370531222357181 0.96978132972058917 0.8006956987449424 0.63783259234857015 0.48808307939786189 0.35692880466754273 0.24827751320117905 0.1643963843607833 0.10594119990328792 0.072080087736302506 0.060710988047067281 0.068770824100383446 0.092630461450188564 0.12856206143793963 0.17325410397690372 0.22433472094096138 0.28084758930168896 0.34360907138856855 0.41536400907539645 0.50065447330414847 0.60532452438475826 0.73560734831398455 0.89677996625220546 1.0914237984821833 1.3173930775003326 1.5656618297300078 1.8182870608952519 2.046783943809706 2.2112523653298428 2.2606195257099881 2.1343700677782449 1.7661272532701457 1.0894345810079493 0.04608043081494291 -1.4026737473954549 -1.366348385415767 -1.2396320869186328 -0.98110196948425743 -0.55765371282727305 0.052565858871799542 0.85861377305379982 1.8562724999881364 3.0284091784066525 4.3460118586483887 5.7697881861774185 7.2522369297446785 8.7401087146472261 10.17716265831225 11.507105301316052 12.676573645130675 13.638002383279842 14.352203467944259 14.790489523107954 14.9361943085469 14.785483181251479 14.34740058034482 13.643163430559571 12.704770864857176 11.573053669429125 10.295324800024769 8.9228114002545329 7.5080483956489577 6.1023963574898534 4.7538165101892567 3.5049991114537478 2.3919034763864224 1.4427331567517969 0.67734121558870886 0.1070394977271218 -0.26522782274472706 -0.44439350625458651 -0.44250928365877551 -0.27777088352272089 0.026624443143781588 0.44373892396596187 0.94422461449547079 1.4976730503432116 2.0739331939401251 2.6443465117768659 3.1828496736130907 3.6668997017071452 4.0781839389497208 4.4030879767372832 4.6329081639716154 4.7638104819759768 4.7965530340738862 4.7360036351313957 4.59049556622253 4.371072364786059 4.0906759076433188 3.7633309099878267 3.4033737248873499 3.0247648228824904 2.640513666327426 2.2622330782071067 1.8998287958350097 1.5613196792437527 1.2527757463857863 0.97835528969600072 0.74041898177827437 0.53969806457362646 0.37549522418081871 0.24590025270622012 0.14800768840434456 0.078129867648837587 0.032005744885041175 0.0050129165382078846 -0.0076031061758736482 -0.010462997034463625 -0.0077287073076350967 -0.0026978864590088145
        </DataArray>
      </CellData>
      <Points>
        <DataArray type="Float32" NumberOfComponents="3" format="ascii">
          -2.5283510662986619 1.128156790224643 0
          -2.5253371368827779 1.1208824141429428 0
          -2.5219770806515176 1.1137612883524279 0
          -2.518238801539078 1.1068312248288765 0
          -2.5140975593047683 1.1001341562341787 0
          -2.5095370184858541 1.093715263468271 0
          -2.5045500400211287 1.0876217539708839 0
          -2.4991391406635191 1.0819013462088158 0
          -2.4933165573102056 1.0766005452818612 0
          -2.4871038754929615 1.0717628179339318 0
          -2.4805312114889237 1.0674267892680993 0
          -2.4736359724317585 1.0636245858113407 0
          -2.4664612541097739 1.0603804393319667 0
          -2.459053967286696 1.0577096437487115 0
          -2.451462806353939 1.0556179260269092 0
          -2.4437361860962143 1.0541012549046835 0
          -2.4359202721386559 1.0531460731328135 0
          -2.4280572188245362 1.0527299041574847 0
          -2.420183706999441 1.0528222566533139 0
          -2.4123298467074505 1.053385732642639 0
          -2.4045184798809993 1.0543772382524315 0
          -2.3967648893207572 1.0557492001248392 0
          -2.3890768955214239 1.0574507035462528 0
          -2.3814553040769177 1.059428488100626 0
          -2.3738946542089461 1.0616277603190292 0
          -2.3663842130443737 1.0639928076585452 0
          -2.3589091594204072 1.0664674218093719 0
          -2.3514519035186288 1.0689951599176477 0
          -2.3439934926681318 1.0715194884918378 0
          -2.3365150575431999 1.073983865701061 0
          -2.3289992554801628 1.0763318230478611 0
          -2.3214316681261025 1.0785071068913152 0
          -2.3138021091565966 1.0804539341511172 0
          -2.3061057950444508 1.0821174051331324 0
          -2.2983443290129841 1.0834441004648359 0
          -2.2905264468414579 1.0843828696405158 0
          -2.2826684746019166 1.0848857970499086 0
          -2.274794453924923 1.0849093093441777 0
          -2.2669359007233143 1.0844153675603563 0
          -2.2591311784555783 1.0833726706075604 0
          -2.2514244862312474 1.0817577853500779 0
          -2.2438644839092357 1.0795561140010239 0
          -2.2365025988772937 1.0767626126328207 0
          -2.2293910802558319 1.0733821853590491 0
          -2.2225808837224368 1.06942969648266 0
          -2.2161194821783821 1.0649295663931295 0
          -2.2100487027070295 1.0599149445928255 0
          -2.2044026878738801 1.0544264831178256 0
          -2.1992060691113036 1.048510763967476 0
          -2.1944724219961276 1.0422184632972293 0
          -2.1902030485334714 1.0356023616725967 0
          -2.1863861016568835 1.028715332679762 0
          -2.1825638894251385 1.0218312271231389 0
          -2.1787215099826716 1.0149583598189389 0
          -2.1748413677496066 1.0081067427797878 0
          -2.1709039075275731 1.0012879050306802 0
          -2.1668883248658011 0.99451477980960412 0
          -2.1627732530857502 0.98780163535361154 0
          -2.1585374252680314 0.98116402370316458 0
          -2.1541603073141107 0.97461872218879886 0
          -2.14962269571549 0.96818364425361703 0
          -2.1449072709603683 0.96187769982945359 0
          -2.1399990948549918 0.95572059044976576 0
          -2.134886037849411 0.94973253043058259 0
          -2.1295591212146241 0.94393389247146053 0
          -2.1240127590742937 0.93834478348575989 0
          -2.1182448871850834 0.93298456380024031 0
          -2.11225696911804 0.92787132941120576 0
          -2.1060538759898715 0.92302138206986839 0
          -2.0996436427167979 0.91844871499253244 0
          -2.0930371112561184 0.9141645425362559 0
          -2.0862474786393435 0.91017690010833296 0
          -2.0792897739240757 0.90649033607422991 0
          -2.0721802927384925 0.90310571099661552 0
          -2.0649360203272109 0.90002011192967557 0
          -2.0575740737054988 0.89722688159183517 0
          -2.0501111907999774 0.8947157549232112 0
          -2.042563289705372 0.89247308953891036 0
          -2.0349451150359461 0.89048217241550898 0
          -2.0272699815108628 0.8887235830099719 0
          -2.0195496180801431 0.8871755928425662 0
          -2.011794109656309 0.88581458308328087 0
          -2.0040119282818991 0.88461546441848005 0
          -1.9962100415640056 0.88355208692879383 0
          -1.9883940835021514 0.88259763138027048 0
          -1.9805685713507899 0.88172497678886563 0
          -1.972737151733853 0.88090704204026749 0
          -1.9649028596700922 0.88011710153026013 0
          -1.9570683752792091 0.87932907615043565 0
          -1.9492362645499908 0.87851780149844605 0
          -1.9414091925288584 0.87765927504226104 0
          -1.9335900995312125 0.8767308832750349 0
          -1.9257823334144286 0.8757116088589576 0
          -1.9179897335170428 0.87458221658543067 0
          -1.9102166644971019 0.87332541588160228 0
          -1.9024680009134955 0.87192599675120808 0
          -1.8947490658883948 0.87037093559065015 0
          -1.8870655294514254 0.8686494673546088 0
          -1.8794232740743946 0.86675312108233737 0
          -1.8718282363436431 0.86467571679606237 0
          -1.8642862345928037 0.86241332314966124 0
          -1.8568027925774289 0.85996417679868553 0
          -1.8493829689088617 0.85732856611688468 0
          -1.8420312010247741 0.85450868343180664 0
          -1.8347511710538997 0.85150845124311636 0
          -1.8275456991668682 0.84833332880788725 0
          -1.8204166680504377 0.84499010596002411 0
          -1.8133649801601603 0.84148669105950158 0
          -1.8063905475452642 0.83783189957167181 0
          -1.7994923124214131 0.83403524902557513 0
          -1.7926682953785833 0.83010676508567993 0
          -1.7859156672001513 0.82605680229680067 0
          -1.7792308397454779 0.82189588182744033 0
          -1.7726095711897747 0.81763454732987439 0
          -1.7660470810753355 0.81328323892398213 0
          -1.7595381710448268 0.80885218434225237 0
          -1.7530773477297905 0.80435130547073197 0
          -1.7466589449842103 0.79979013789271913 0
          -1.7402772434162759 0.79517776058427792 0
          -1.7339265859213779 0.79052273261229256 0
          -1.7276014886057272 0.78583303353508926 0
          -1.7212967470738947 0.78111600419490435 0
          -1.7150075385079862 0.77637828472050219 0
          -1.7087295202762729 0.77162574683655261 0
          -1.7024589259723621 0.76686341802378666 0
          -1.6961926598115404 0.76209539571953555 0
          -1.6899283902182687 0.75732475062792393 0
          -1.6836646432544884 0.75255341936124764 0
        </DataArray>
      </Points>
      <Cells>
        <DataArray type="Int32" Name="connectivity" format="ascii">
          0 1 1 2 2 3 3 4 4 5 5 6 6 7 7 8 8 9 9 10 10 11 11 12 12 13 13 14 14 15 15 16 16 17 17 18 18 19 19 20 20 21 21 22 22 23 23 24 24 25 25 26 26 27 27 28 28 29 29 30 30 31 31 32 32 33 33 34 34 35 35 36 36 37 37 38 38 39 39 40 40 41 41 42 42 43 43 44 44 45 45 46 46 47 47 48 48 49 49 50 50 51 51 52 52 53 53 54 54 55 55 56 56 57 57 58 58 59 59 60 60 61 61 62 62 63 63 64 64 65 65 66 66 67 67 68 68 69 69 70 70 71 71 72 72 73 73 74 74 75 75 76 76 77 77 78 78 79 79 80 80 81 81 82 82 83 83 84 84 85 85 86 86 87 87 88 88 89 89 90 90 91 91 92 92 93 93 94 94 95 95 96 96 97 97 98 98 99 99 100 100 101 101 102 102 103 103 104 104 105 105 106 106 107 107 108 108 109 109 110 110 111 111 112 112 113 113 114 114 115 115 116 116 117 117 118 118 119 119 120 120 121 121 122 122 123 123 124 124 125 125 126 126 127 
        </DataArray>
        <DataArray type="Int32" Name="offsets" format="ascii">
          2 4 6 8 10 12 14 16 18 20 22 24 26 28 30 32 34 36 38 40 42 44 46 48 50 52 54 56 58 60 62 64 66 68 70 72 74 76 78 80 82 84 86 88 90 92 94 96 98 100 102 104 106 108 110 112 114 116 118 120 122 124 126 128 130 132 134 136 138 140 142 144 146 148 150 152 154 156 158 160 162 164 166 168 170 172 174 176 178 180 182 184 186 188 190 192 194 196 198 200 202 204 206 208 210 212 214 216 218 220 222 224 226 228 230 232 234 236 238 240 242 244 246 248 250 252 254 
        </DataArray>
        <DataArray type="Int32" Name="types" format="ascii">
          3 3 3 3 3 3 3 3 3 3 3 3 3 3 3 3 3 3 3 3 3 3 3 3 3 3 3 3 3 3 3 3 3 3 3 3 3 3 3 3 3 3 3 3 3 3 3 3 3 3 3 3 3 3 3 3 3 3 3 3 3 3 3 3 3 3 3 3 3 3 3 3 3 3 3 3 3 3 3 3 3 3 3 3 3 3 3 3 3 3 3 3 3 3 3 3 3 3 3 3 3 3 3 3 3 3 3 3 3 3 3 3 3 3 3 3 3 3 3 3 3 3 3 3 3 3 3         </DataArray>
      </Cells>
    </Piece>
  </UnstructuredGrid>
</VTKFile>
<!-- DATA


-->
