<?xml version="1.0"?>
<VTKFile type="UnstructuredGrid" version="0.1" byte_order="LittleEndian">
  <UnstructuredGrid>
    <Piece NumberOfPoints="128" NumberOfCells="127">
      <PointData Scalars="u">
        <DataArray type="Float32" Name="Y" NumberOfComponents="2">

0 0
0.029491578154290151 -0.010611996332571821
0.061174042794439158 0.0012968392454746544
0.096867899902344151 0.012613509019763205
0.13366097186891512 0.023689427702395606
0.16858773340747474 0.032480590963275234
0.1977877333558036 0.039353086177689206
0.21954497920361074 0.04416664591792064
0.23432003413892818 0.047399340864649378
0.24252859998586401 0.049166117487347963
0.24500964079392085 0.049114701982286381
0.24251915025466003 0.048215174174702245
0.2365966809200401 0.044969029984196357
0.22811162317464051 0.041450830071921713
0.21956720453189008 0.034929906845377598
0.21265901736938644 0.026889659086720943
0.20548733951938195 0.019538714800262539
0.19916971363818392 0.0068492553221295724
0.19060965214164907 -0.0050714248507927034
0.1831718063442716 -0.025104903791360815
0.17294634461760072 -0.04513042764487183
0.16441946151517559 -0.075295164264475384
0.15624664892230117 -0.11514524849160569
0.12556407886710824 -0.13782759952563545
0.091109700597049328 -0.15699893052487132
0.063950602856903377 -0.17711834432420254
0.046794664128459271 -0.1951580616615616
0.038187298309811657 -0.20729119192424458
0.037248879388841423 -0.21262513263991234
0.042424909951993828 -0.21048399948824953
0.052839085636788637 -0.20088716679088126
0.064862586418798843 -0.18318137704149551
0.077722782400290485 -0.15874030797326752
0.09108894743095218 -0.12839547817179683
0.10295973812660618 -0.092481304162435191
0.11220943680381819 -0.052474909319352663
0.11672495563069334 -0.010232496391165274
0.1185259522597413 0.032222824944580036
0.1164291622054771 0.074307193448975906
0.1105184806779041 0.11522093197034948
0.10104026898820934 0.15436135100094533
0.089594432726732398 0.19151938469339339
0.073847308830935515 0.22554436840354741
0.055795351476688855 0.25495768253892614
0.036197214057588967 0.27889969869489106
0.017089944521423726 0.29753578411858017
-0.0033420907170842295 0.30958280138541527
-0.022588129303863037 0.31441910505764958
-0.039685350593321816 0.31205246556453869
-0.052815074766685767 0.30391146719626572
-0.063956657029786881 0.28927237266749656
-0.069757838295726113 0.26930942839215877
-0.0715989877894537 0.24224273269211069
-0.066775251041142847 0.2078543875024198
-0.053161085252067634 0.16688328509226633
-0.031686337872421158 0.116979349396673
0.0018328886571638821 0.058333030370886267
0.047936624838072657 -0.0123038959454723
0.11039372136730924 -0.096294127701157931
0.19187371264640085 -0.19395980856895653
0.29286374831722689 -0.30794122314356742
0.4163172896667256 -0.43854798430463665
0.5629527182131927 -0.58754569894106035
0.73348197519759928 -0.75790438929763138
0.92753196239883884 -0.95127710681708721
1.14164161949795 -1.1672308101904108
1.370227797323168 -1.4043555547528881
1.6072629819146993 -1.6603689507828892
1.8471988204352354 -1.9344838229087267
2.0831325932919844 -2.2283091899545182
2.3078752338730446 -2.5416278605167539
2.5141095414954839 -2.8721256903420782
2.6968212350918668 -3.2168237894864062
2.8470554456130479 -3.5765869646091288
2.9577117182098975 -3.9482805400044709
3.0226426471620202 -4.3259644220812277
3.0403027712403246 -4.7020946900541967
3.0032663279739609 -5.0736669161012502
2.9087488787394253 -5.4330955310100881
2.7553417404407821 -5.7710319548117646
2.5447060940102406 -6.0761336109180046
2.2874965255340092 -6.3375133542991655
1.9828065205774483 -6.5512401484607663
1.6382394404401011 -6.7105686060430365
1.2628115531491373 -6.8093551017358767
0.86779437655548342 -6.8423014940702158
0.4730120931062613 -6.8089367714875895
0.08019204112275681 -6.7137583637292986
-0.30188661459333427 -6.5607368544572218
-0.66332168031222183 -6.3545420467981968
-0.99645698715934516 -6.100396131273059
-1.2947035150177786 -5.8037197089862875
-1.5522344949435374 -5.4699098881299042
-1.7574546044326309 -5.1107185112995204
-1.9183775637669322 -4.7333802331301662
-2.0353151857988605 -4.3463874964848221
-2.1095348714218374 -3.9567454216549485
-2.142786539116222 -3.5699092400200332
-2.1368214103564203 -3.1898762058186065
-2.0931292111102247 -2.8192534644559766
-2.012467006318432 -2.4597682163018488
-1.895106373954343 -2.1124754970990982
-1.7408795048539225 -1.77822796149951
-1.5497612867240091 -1.4576927160199189
-1.3215377155297741 -1.1533194739983017
-1.0585216331977167 -0.86681760771304017
-0.76411883221287757 -0.60080431217157926
-0.44340680599147342 -0.35958611118775968
-0.10510243327768265 -0.14577584484084113
0.23887245386977429 0.040343256656319319
0.57584770577568767 0.18869310908233919
0.88476795888659077 0.29795435388967872
1.145730413521036 0.37150075374764169
1.3442203518176854 0.40325038387104939
1.464450180387268 0.40171854724667982
1.5002136133882549 0.37122199676701645
1.4514823017471685 0.31846367007559157
1.3271386753656635 0.25329991023945325
1.1464859197065151 0.18954689763569185
0.93648790377057234 0.13064035205527486
0.72586497287268081 0.086084252006298004
0.54297151742692829 0.057583696960737493
0.4013477639167321 0.044796400008682298
0.28644817979706338 0.02302499702969742
0.18162320915332478 0.0080781848282550153
0.092917951041317268 -0.00510575295678247
0.024805001641857193 -0.025250303581168233
0 0

        </DataArray>
        <DataArray type="Float32" Name="W" NumberOfComponents="2">

-21.993524353238001 7.5637329421329484
-21.991346619790306 7.5561658182569822
-21.989315860725839 7.5485579925802098
-21.987415487976758 7.5409166062342665
-21.985628880541427 7.5332478673996865
-21.983928224588077 7.5255596477501738
-21.982295396286691 7.517856765632362
-21.980710796637705 7.5101438359101085
-21.979155898881526 7.5024248710148518
-21.977599675296659 7.4947061688765668
-21.976022912314498 7.4869916186335725
-21.974392651302779 7.4792881633650987
-21.97268734737888 7.4716009225133231
-21.970872193930877 7.4639388073929798
-21.968924572269039 7.4563091988850019
-21.966807566667917 7.448724729230582
-21.964482837353216 7.4412011875398409
-21.961926376339449 7.4337530258305504
-21.959098998875497 7.4264032241143338
-21.955979084465291 7.4191725081875024
-21.952528369507746 7.4120934081272356
-21.948726383816528 7.4051962800683704
-21.94454066750728 7.3985246901171022
-21.939957116762905 7.3921194796041982
-21.93498274222603 7.3860129913662522
-21.929644057789613 7.3802224610697138
-21.923967963708833 7.3747624066534954
-21.917979406777857 7.3696471253998199
-21.911704756690554 7.3648872374863465
-21.90517012557811 7.3604911776772974
-21.898400968142408 7.3564657174771515
-21.891420803377606 7.3528184872058846
-21.884254295893996 7.3495526975851
-21.87692529318986 7.3466701295202474
-21.869455855868011 7.3441740715109738
-21.861867667867926 7.3420665691420242
-21.85418201052061 7.3403483627668571
-21.84642040021075 7.3390148067815968
-21.838602733086443 7.338063772155639
-21.830748264723262 7.3374918114039041
-21.822875516678732 7.3372941404300844
-21.815002173549519 7.3374647733737444
-21.807145325252083 7.3380014278701768
-21.799321168731275 7.3388958709580914
-21.791544788528501 7.3401387404302021
-21.783830051664054 7.3417195545809903
-21.776190830775459 7.3436320794244718
-21.768638760243046 7.3458638825906641
-21.761183943793579 7.3484015293661109
-21.753834881867615 7.3512307359449443
-21.746600882987028 7.3543422539194889
-21.739487607213519 7.357720524839884
-21.732501956323599 7.3613552458578591
-21.725646533103912 7.3652298766337543
-21.718922049220286 7.369327431631298
-21.712331562754368 7.3736370930882904
-21.705872411571882 7.3781411025757189
-21.699544253912794 7.3828272754253428
-21.693340597825479 7.3876769677859944
-21.687252655690241 7.3926710562239286
-21.681274485198767 7.3977959549334296
-21.67539290877172 7.4030313514418422
-21.669597327465905 7.4083617223753135
-21.663875035586326 7.4137706410517614
-21.658205294189845 7.4192345765674368
-21.652566057863595 7.4247299620552285
-21.64693776156345 7.4302365404606689
-21.641300224415858 7.4357336660812949
-21.635639051247495 7.441206476470084
-21.629932839711188 7.4466323638545289
-21.624160154451836 7.4519875520831853
-21.618300040090805 7.4572470291556741
-21.61233914192427 7.4623921321665998
-21.606258912844524 7.4673958120894968
-21.60004279583319 7.4722298300132142
-21.593676854979705 7.4768649874370308
-21.587155386177226 7.4812788873379903
-21.580470466246421 7.485441363379806
-21.573617934429617 7.4893220234140205
-21.566597693813236 7.4928906774065691
-21.559413930464252 7.4961178914123137
-21.552079308142197 7.4989861315759514
-21.544605619025841 7.5014699587262648
-21.537008533543382 7.5035463572891681
-21.529307248441505 7.505195233721393
-21.521524021865236 7.5063998598118093
-21.513684771289981 7.5071592452266662
-21.505814725071765 7.5074647779948487
-21.497940261210466 7.5073099709771247
-21.490088460695876 7.5066933156102627
-21.482286436789963 7.5056167017009265
-21.474560854583956 7.5040852057275593
-21.466937501516394 7.5021068631409182
-21.459436846430805 7.4997050793394697
-21.452080399115058 7.4968926033964527
-21.444888038096753 7.4936838387159534
-21.437877970489566 7.4900944028629652
-21.431066768625058 7.4861407325074651
-21.424469415384287 7.4818398217408619
-21.418099467335395 7.4772088766977989
-21.411968875298733 7.4722655177851216
-21.406088069297777 7.4670275572069489
-21.400465910677312 7.4615129686469528
-21.39510976782379 7.4557397184690331
-21.39002371493131 7.4497272197661877
-21.385211512652308 7.4434934229120602
-21.380675010825929 7.4370562556667981
-21.376412795223089 7.4304343284919554
-21.372423895695569 7.423644302253801
-21.368704445949152 7.4167030674941454
-21.36523651134214 7.4096328800136622
-21.362015867669161 7.4024467473925801
-21.359041939058731 7.3951551368231883
-21.356300481673507 7.387773073223955
-21.353795060650739 7.3803076952006892
-21.351519307116853 7.3727692296278828
-21.349469006005371 7.3651664444477634
-21.347644868596504 7.3575063337472661
-21.346046497400891 7.3497960240414333
-21.344652323215108 7.3420462473183266
-21.343454492742037 7.3342637470388787
-21.342417352429575 7.3264582357636963
-21.341485611304726 7.3186394594542277
-21.340566469823393 7.3108192003036629
-21.339748598972992 7.3029876883576357
-21.339035220841577 7.2951459341421616
-21.338444183653269 7.2872939510693273
-21.338112402122075 7.2794267908787669

        </DataArray>
        <DataArray type="Float32" Name="u" NumberOfComponents="1">
          0 0.007874015748031496 0.015748031496062992 0.023622047244094488 0.031496062992125984 0.03937007874015748 0.047244094488188976 0.055118110236220472 0.062992125984251968 0.070866141732283464 0.07874015748031496 0.086614173228346455 0.094488188976377951 0.10236220472440945 0.11023622047244094 0.11811023622047244 0.12598425196850394 0.13385826771653545 0.14173228346456693 0.14960629921259844 0.15748031496062992 0.16535433070866143 0.17322834645669291 0.18110236220472442 0.1889763779527559 0.19685039370078741 0.20472440944881889 0.2125984251968504 0.22047244094488189 0.2283464566929134 0.23622047244094488 0.24409448818897639 0.25196850393700787 0.25984251968503935 0.26771653543307089 0.27559055118110237 0.28346456692913385 0.29133858267716534 0.29921259842519687 0.30708661417322836 0.31496062992125984 0.32283464566929132 0.33070866141732286 0.33858267716535434 0.34645669291338582 0.3543307086614173 0.36220472440944884 0.37007874015748032 0.37795275590551181 0.38582677165354329 0.39370078740157483 0.40157480314960631 0.40944881889763779 0.41732283464566927 0.42519685039370081 0.43307086614173229 0.44094488188976377 0.44881889763779526 0.45669291338582679 0.46456692913385828 0.47244094488188976 0.48031496062992124 0.48818897637795278 0.49606299212598426 0.50393700787401574 0.51181102362204722 0.51968503937007871 0.52755905511811019 0.53543307086614178 0.54330708661417326 0.55118110236220474 0.55905511811023623 0.56692913385826771 0.57480314960629919 0.58267716535433067 0.59055118110236215 0.59842519685039375 0.60629921259842523 0.61417322834645671 0.62204724409448819 0.62992125984251968 0.63779527559055116 0.64566929133858264 0.65354330708661412 0.66141732283464572 0.6692913385826772 0.67716535433070868 0.68503937007874016 0.69291338582677164 0.70078740157480313 0.70866141732283461 0.71653543307086609 0.72440944881889768 0.73228346456692917 0.74015748031496065 0.74803149606299213 0.75590551181102361 0.76377952755905509 0.77165354330708658 0.77952755905511806 0.78740157480314965 0.79527559055118113 0.80314960629921262 0.8110236220472441 0.81889763779527558 0.82677165354330706 0.83464566929133854 0.84251968503937003 0.85039370078740162 0.8582677165354331 0.86614173228346458 0.87401574803149606 0.88188976377952755 0.88976377952755903 0.89763779527559051 0.90551181102362199 0.91338582677165359 0.92125984251968507 0.92913385826771655 0.93700787401574803 0.94488188976377951 0.952755905511811 0.96062992125984248 0.96850393700787396 0.97637795275590555 0.98425196850393704 0.99212598425196852 1
        </DataArray>
      </PointData>
      <CellData Scalars="P">
        <DataArray type="Float32" Name="P" NumberOfComponents="1">
          0.022850217932390754 0.038051850757251059 0.040785564851347475 0.041893440624959193 0.051583882071924318 0.071827256434111253 0.10358195506957907 0.1437820230868426 0.19184431244218866 0.24204235689139386 0.2954953328804481 0.34894043136336556 0.4074892384182367 0.47100381490216098 0.55324961962754104 0.66290094463761873 0.7905043598570759 0.9495826919555479 1.1233177228149915 1.3320112130346886 1.5538745726053012 1.8005344000541266 2.0307107454794089 2.2132969995596805 2.4034360109483797 2.6349042713713451 2.928173455293031 3.283020601454361 3.6946252565193687 4.1573730979108969 4.6688543167038867 5.2126367534888276 5.780412127384011 6.3724493058478444 6.9805305262041779 7.5927405945693289 8.1890213287529434 8.7718644144143916 9.3375160178969541 9.8828174101169051 10.406366226052828 10.914967447337967 11.392189941874767 11.83183906478008 12.231596619005748 12.598278715710693 12.918544835978942 13.189859750342979 13.414854699340474 13.603639648313589 13.750348855278956 13.859119558988365 13.921556926032974 13.937283820407082 13.90822674729314 13.830521478935792 13.700081959059469 13.518031203488169 13.291212527829645 13.019512891095776 12.730318670711471 12.428022375032485 12.134346133130787 11.911483166357593 11.801274683983017 11.819759043146645 11.997286345140461 12.304132997338481 12.815196759605131 13.546201559845679 14.502582331582216 15.610152802174657 16.925235576176924 18.428817272854904 20.087658725744458 21.799751118545551 23.584685482532858 25.395015553655945 27.17418936161387 28.857026209626255 30.331153628183156 31.605635719626378 32.64301274773414 33.408480454338886 33.87081905842097 34.002524973302776 33.836561044922313 33.396840774278807 32.706772050627286 31.789262703700093 30.665180607876046 29.351845226529871 27.909544626338352 26.350908982183512 24.717790339035457 23.042506594344548 21.347558138721322 19.646122354693301 17.942013910501444 16.233130630539467 14.511599315331541 12.767162672959621 10.98912582037698 9.1819437452885335 7.3405127615517802 5.4789509202202007 3.6307392201757711 1.8175929423082879 0.091039138932349439 -1.4207809942190621 -2.7413853228444962 -3.8277148796747351 -4.5836353093473461 -5.0343352182184553 -5.1461902807831228 -4.9388474125400021 -4.4404604687508629 -3.7142103098090495 -2.9352830047071663 -2.1476610261692053 -1.5465835071657332 -1.2079124107982457 -1.1377192907392346 -0.88099870229004229 -0.63419797864427252 -0.38346977488676365 -0.023687307535858147
        </DataArray>
      </CellData>
      <Points>
        <DataArray type="Float32" NumberOfComponents="3" format="ascii">
          -21.993524353238001 7.5637329421329484 0
          -21.991346619790306 7.5561658182569822 0
          -21.989315860725839 7.5485579925802098 0
          -21.987415487976758 7.5409166062342665 0
          -21.985628880541427 7.5332478673996865 0
          -21.983928224588077 7.5255596477501738 0
          -21.982295396286691 7.517856765632362 0
          -21.980710796637705 7.5101438359101085 0
          -21.979155898881526 7.5024248710148518 0
          -21.977599675296659 7.4947061688765668 0
          -21.976022912314498 7.4869916186335725 0
          -21.974392651302779 7.4792881633650987 0
          -21.97268734737888 7.4716009225133231 0
          -21.970872193930877 7.4639388073929798 0
          -21.968924572269039 7.4563091988850019 0
          -21.966807566667917 7.448724729230582 0
          -21.964482837353216 7.4412011875398409 0
          -21.961926376339449 7.4337530258305504 0
          -21.959098998875497 7.4264032241143338 0
          -21.955979084465291 7.4191725081875024 0
          -21.952528369507746 7.4120934081272356 0
          -21.948726383816528 7.4051962800683704 0
          -21.94454066750728 7.3985246901171022 0
          -21.939957116762905 7.3921194796041982 0
          -21.93498274222603 7.3860129913662522 0
          -21.929644057789613 7.3802224610697138 0
          -21.923967963708833 7.3747624066534954 0
          -21.917979406777857 7.3696471253998199 0
          -21.911704756690554 7.3648872374863465 0
          -21.90517012557811 7.3604911776772974 0
          -21.898400968142408 7.3564657174771515 0
          -21.891420803377606 7.3528184872058846 0
          -21.884254295893996 7.3495526975851 0
          -21.87692529318986 7.3466701295202474 0
          -21.869455855868011 7.3441740715109738 0
          -21.861867667867926 7.3420665691420242 0
          -21.85418201052061 7.3403483627668571 0
          -21.84642040021075 7.3390148067815968 0
          -21.838602733086443 7.338063772155639 0
          -21.830748264723262 7.3374918114039041 0
          -21.822875516678732 7.3372941404300844 0
          -21.815002173549519 7.3374647733737444 0
          -21.807145325252083 7.3380014278701768 0
          -21.799321168731275 7.3388958709580914 0
          -21.791544788528501 7.3401387404302021 0
          -21.783830051664054 7.3417195545809903 0
          -21.776190830775459 7.3436320794244718 0
          -21.768638760243046 7.3458638825906641 0
          -21.761183943793579 7.3484015293661109 0
          -21.753834881867615 7.3512307359449443 0
          -21.746600882987028 7.3543422539194889 0
          -21.739487607213519 7.357720524839884 0
          -21.732501956323599 7.3613552458578591 0
          -21.725646533103912 7.3652298766337543 0
          -21.718922049220286 7.369327431631298 0
          -21.712331562754368 7.3736370930882904 0
          -21.705872411571882 7.3781411025757189 0
          -21.699544253912794 7.3828272754253428 0
          -21.693340597825479 7.3876769677859944 0
          -21.687252655690241 7.3926710562239286 0
          -21.681274485198767 7.3977959549334296 0
          -21.67539290877172 7.4030313514418422 0
          -21.669597327465905 7.4083617223753135 0
          -21.663875035586326 7.4137706410517614 0
          -21.658205294189845 7.4192345765674368 0
          -21.652566057863595 7.4247299620552285 0
          -21.64693776156345 7.4302365404606689 0
          -21.641300224415858 7.4357336660812949 0
          -21.635639051247495 7.441206476470084 0
          -21.629932839711188 7.4466323638545289 0
          -21.624160154451836 7.4519875520831853 0
          -21.618300040090805 7.4572470291556741 0
          -21.61233914192427 7.4623921321665998 0
          -21.606258912844524 7.4673958120894968 0
          -21.60004279583319 7.4722298300132142 0
          -21.593676854979705 7.4768649874370308 0
          -21.587155386177226 7.4812788873379903 0
          -21.580470466246421 7.485441363379806 0
          -21.573617934429617 7.4893220234140205 0
          -21.566597693813236 7.4928906774065691 0
          -21.559413930464252 7.4961178914123137 0
          -21.552079308142197 7.4989861315759514 0
          -21.544605619025841 7.5014699587262648 0
          -21.537008533543382 7.5035463572891681 0
          -21.529307248441505 7.505195233721393 0
          -21.521524021865236 7.5063998598118093 0
          -21.513684771289981 7.5071592452266662 0
          -21.505814725071765 7.5074647779948487 0
          -21.497940261210466 7.5073099709771247 0
          -21.490088460695876 7.5066933156102627 0
          -21.482286436789963 7.5056167017009265 0
          -21.474560854583956 7.5040852057275593 0
          -21.466937501516394 7.5021068631409182 0
          -21.459436846430805 7.4997050793394697 0
          -21.452080399115058 7.4968926033964527 0
          -21.444888038096753 7.4936838387159534 0
          -21.437877970489566 7.4900944028629652 0
          -21.431066768625058 7.4861407325074651 0
          -21.424469415384287 7.4818398217408619 0
          -21.418099467335395 7.4772088766977989 0
          -21.411968875298733 7.4722655177851216 0
          -21.406088069297777 7.4670275572069489 0
          -21.400465910677312 7.4615129686469528 0
          -21.39510976782379 7.4557397184690331 0
          -21.39002371493131 7.4497272197661877 0
          -21.385211512652308 7.4434934229120602 0
          -21.380675010825929 7.4370562556667981 0
          -21.376412795223089 7.4304343284919554 0
          -21.372423895695569 7.423644302253801 0
          -21.368704445949152 7.4167030674941454 0
          -21.36523651134214 7.4096328800136622 0
          -21.362015867669161 7.4024467473925801 0
          -21.359041939058731 7.3951551368231883 0
          -21.356300481673507 7.387773073223955 0
          -21.353795060650739 7.3803076952006892 0
          -21.351519307116853 7.3727692296278828 0
          -21.349469006005371 7.3651664444477634 0
          -21.347644868596504 7.3575063337472661 0
          -21.346046497400891 7.3497960240414333 0
          -21.344652323215108 7.3420462473183266 0
          -21.343454492742037 7.3342637470388787 0
          -21.342417352429575 7.3264582357636963 0
          -21.341485611304726 7.3186394594542277 0
          -21.340566469823393 7.3108192003036629 0
          -21.339748598972992 7.3029876883576357 0
          -21.339035220841577 7.2951459341421616 0
          -21.338444183653269 7.2872939510693273 0
          -21.338112402122075 7.2794267908787669 0
        </DataArray>
      </Points>
      <Cells>
        <DataArray type="Int32" Name="connectivity" format="ascii">
          0 1 1 2 2 3 3 4 4 5 5 6 6 7 7 8 8 9 9 10 10 11 11 12 12 13 13 14 14 15 15 16 16 17 17 18 18 19 19 20 20 21 21 22 22 23 23 24 24 25 25 26 26 27 27 28 28 29 29 30 30 31 31 32 32 33 33 34 34 35 35 36 36 37 37 38 38 39 39 40 40 41 41 42 42 43 43 44 44 45 45 46 46 47 47 48 48 49 49 50 50 51 51 52 52 53 53 54 54 55 55 56 56 57 57 58 58 59 59 60 60 61 61 62 62 63 63 64 64 65 65 66 66 67 67 68 68 69 69 70 70 71 71 72 72 73 73 74 74 75 75 76 76 77 77 78 78 79 79 80 80 81 81 82 82 83 83 84 84 85 85 86 86 87 87 88 88 89 89 90 90 91 91 92 92 93 93 94 94 95 95 96 96 97 97 98 98 99 99 100 100 101 101 102 102 103 103 104 104 105 105 106 106 107 107 108 108 109 109 110 110 111 111 112 112 113 113 114 114 115 115 116 116 117 117 118 118 119 119 120 120 121 121 122 122 123 123 124 124 125 125 126 126 127 
        </DataArray>
        <DataArray type="Int32" Name="offsets" format="ascii">
          2 4 6 8 10 12 14 16 18 20 22 24 26 28 30 32 34 36 38 40 42 44 46 48 50 52 54 56 58 60 62 64 66 68 70 72 74 76 78 80 82 84 86 88 90 92 94 96 98 100 102 104 106 108 110 112 114 116 118 120 122 124 126 128 130 132 134 136 138 140 142 144 146 148 150 152 154 156 158 160 162 164 166 168 170 172 174 176 178 180 182 184 186 188 190 192 194 196 198 200 202 204 206 208 210 212 214 216 218 220 222 224 226 228 230 232 234 236 238 240 242 244 246 248 250 252 254 
        </DataArray>
        <DataArray type="Int32" Name="types" format="ascii">
          3 3 3 3 3 3 3 3 3 3 3 3 3 3 3 3 3 3 3 3 3 3 3 3 3 3 3 3 3 3 3 3 3 3 3 3 3 3 3 3 3 3 3 3 3 3 3 3 3 3 3 3 3 3 3 3 3 3 3 3 3 3 3 3 3 3 3 3 3 3 3 3 3 3 3 3 3 3 3 3 3 3 3 3 3 3 3 3 3 3 3 3 3 3 3 3 3 3 3 3 3 3 3 3 3 3 3 3 3 3 3 3 3 3 3 3 3 3 3 3 3 3 3 3 3 3 3         </DataArray>
      </Cells>
    </Piece>
  </UnstructuredGrid>
</VTKFile>
<!-- DATA


-->
