<?xml version="1.0"?>
<VTKFile type="UnstructuredGrid" version="0.1" byte_order="LittleEndian">
  <UnstructuredGrid>
    <Piece NumberOfPoints="128" NumberOfCells="127">
      <PointData Scalars="u">
        <DataArray type="Float32" Name="Y" NumberOfComponents="2">

0 0
0.044116295938985139 -0.0098505729584793065
0.041716912317337596 0.0097596699949817293
0.03697701282265637 0.04518965054564187
0.027539372004287195 0.091848027785041864
0.01249871796254568 0.14536164083851577
-0.0078576815761505509 0.2018316562342812
-0.032346566839984006 0.25798909058362679
-0.059191596251333564 0.31125277399500689
-0.086307205084734731 0.35970330234543174
-0.11154594265185637 0.40199372040991888
-0.13290048377225464 0.43722119310001478
-0.14865922804846191 0.46478410695902173
-0.15751997231178647 0.48424671385716384
-0.15866895798479363 0.49522954268328617
-0.15183261499081729 0.49733918420971085
-0.1373069650939045 0.49014620879200765
-0.11596566243095036 0.47321505723742202
-0.089243007068864136 0.44618462324707164
-0.059084069732595924 0.4088926836155321
-0.02785146776775789 0.36153120612090822
0.0018215745992471489 0.30481309350449015
0.027238601477966605 0.24012483304432278
0.045906886502186196 0.16963510192242165
0.055852039249131423 0.096328329338594851
0.055955127300835732 0.023936288139930581
0.046274388732145337 -0.043248787521766086
0.028304508365456824 -0.10067923138401752
0.005124466836275556 -0.14395321496177715
-0.01860725649621368 -0.1692675520701496
-0.036833180748754545 -0.17385825857282575
-0.042449587741167721 -0.15635500542941971
-0.027798212978347815 -0.11697853834024315
0.014762945648573396 -0.057527366601949625
0.092285448443020737 0.018870797174208517
0.21072879982246631 0.10823193837038082
0.37459018541758499 0.20636795781006761
0.58669258684539305 0.30964746824242417
0.84811834910061479 0.41578140213381359
1.1582355127099495 0.52454928285560587
1.5147329636442506 0.63838986155217992
1.9135644631115132 0.76278851842591511
2.3487057700407532 0.90639556151168266
2.8116571025563726 1.080799194438177
3.2906787982794827 1.2998552278316058
3.76983494542556 1.5784521989702032
4.2280390939344805 1.9305860672798143
4.6384398927772743 2.3666644649747095
4.9686252697373785 2.8900930742412041
5.1822048301591028 3.4934424602053755
5.2422646229952097 4.1548420874639715
5.1879187884740974 4.7544017554821778
5.0926843285230765 5.2254222265178187
4.8910192443933731 5.6398682550640276
4.5980740871886567 5.9823670014309984
4.2316409442241065 6.2400727197801302
3.8113214269953484 6.4035801634308678
3.3574750098918402 6.4674777705804827
2.8900830950457057 6.4305105704634959
2.4276646122614518 6.2953721096239184
1.9863585093043157 6.0681889088876169
1.5792529994733866 5.7577916347307152
1.2159992795577725 5.3748800899207447
0.90270707924625915 4.9311845817332545
0.64208739374591295 4.4387080517015951
0.43378758413395663 3.9091072788703078
0.27485611740191379 3.3532433719069079
0.16027659038354428 2.7809063617113812
0.083520074232351346 2.2006989164844404
0.037077701700261888 1.6200511349169329
0.012948767342004407 1.0453317232140686
0.003071274191895667 0.48201946817751712
-0.00030934338365483296 -0.065098699012177255
-0.0043320138651740088 -0.59173200622548949
-0.015268413202600809 -1.0939154822701374
-0.038323718033456931 -1.5678814601217466
-0.077486720676679791 -2.0099830265524692
-0.1354281875064049 -2.4166733400951297
-0.21344814518465677 -2.7845390164550592
-0.31147389204018561 -3.1103806550515487
-0.4281105570256783 -3.3913292534671555
-0.56074480111759506 -3.624983981937151
-0.70569986597503043 -3.8095548398859411
-0.85843693119890108 -3.9439933206769169
-1.0137941418957721 -4.0280954821120991
-1.1662512974850887 -4.0625646953898977
-1.3102056336094019 -4.0490255533438244
-1.4402428490052537 -3.9899854960512715
-1.5513877947930597 -3.8887460598992067
-1.6393210716961426 -3.7492706335561103
-1.7005509350378025 -3.5760196325189701
-1.7325339565752673 -3.3737666572788685
-1.7337422811653074 -3.1474102713548251
-1.7036794858500919 -2.901795544733579
-1.6428505151798207 -2.6415576807327121
-1.5526935981934464 -2.3709972450295966
-1.4354833042603588 -2.0939931703301822
-1.2942139992141166 -1.8139562323817988
-1.1324721037649066 -1.5338224217941259
-0.95430401366034001 -1.2560828062123492
-0.76408464334224235 -0.98284421075343309
-0.5663896262649134 -0.71591336808016592
-0.36587252631455414 -0.45689606772006164
-0.16714720568683181 -0.20730219952309664
0.025325113555463994 0.031352619278540973
0.2073445157718633 0.2574579547171052
0.37507656411625023 0.4692405362225891
0.52515064627114239 0.66472481379142623
0.65474980154840889 0.84172809388530478
0.76168801175700385 0.99789424416711126
0.84446997190440631 1.1307674648859727
0.90232806620572314 1.2379047621624684
0.93523192364457008 1.3170227251542468
0.94386766035058611 1.3661712871645424
0.92958670762707851 1.3839246644899772
0.89432774432041284 1.369577921018684
0.84051926120716081 1.3233368169635171
0.77097406623552078 1.2464888354318815
0.68878987426993299 1.1415444318929711
0.59727127814154946 1.0123393636006346
0.49988723374344124 0.86409109892822411
0.40027426421328943 0.70340450631651807
0.30228873685615087 0.53822418735486077
0.21010198571315575 0.37773313672582054
0.12832035087982435 0.23220035155604854
0.062099450947698247 0.11278417417861598
0.017209693452960601 0.031303968424506397
0 0

        </DataArray>
        <DataArray type="Float32" Name="W" NumberOfComponents="2">

-2.0544943898076773 0.87328376692131204
-2.0467671782046524 0.87176983213040704
-2.0389531350960572 0.87079906591347667
-2.0310919660644067 0.87034793457711801
-2.0232179682929612 0.87038647246695255
-2.0153593103228142 0.8708790584776287
-2.007537562325461 0.87178527147081619
-1.9997674980013991 0.87306076569661406
-1.9920571733062571 0.8746581102521529
-1.9844082728604668 0.87652754497200525
-1.9768167032520276 0.87861761792806936
-1.9692734040806139 0.88087568551092754
-1.9617653424937058 0.88324827325417121
-1.9542766545583361 0.88568131252502891
-1.9467898961244048 0.888120283463257
-1.9392873657152809 0.89051030686684651
-1.931752461334965 0.8927962361235432
-1.9241710310964841 0.89492280404855296
-1.9165326738999677 0.89683487811475127
-1.9088319412352603 0.89847787077636865
-1.9010693853640213 0.89979833936852094
-1.8932523939996997 0.90074479272317876
-1.885395748891239 0.90126869993037584
-1.8775218473254445 0.90132567190200408
-1.8696605332389413 0.90087676050778076
-1.8618484996078879 0.89988979561364491
-1.8541282464199473 0.8983406604055707
-1.8465466080015009 0.89621439314753615
-1.8391528975896825 0.89350600194280372
-1.831996752308177 0.89022089024078943
-1.8251257936475656 0.88637481543709051
-1.8185832423193427 0.88199333976520056
-1.8124056375875539 0.87711077855442587
-1.8066208069454757 0.87176870080632407
-1.801246211589647 0.86601408476423014
-1.7962877585240304 0.85989727044597886
-1.7917391258807056 0.85346987675557484
-1.7875816006993717 0.84678285962099997
-1.7837843853365865 0.83988487908789244
-1.7803052967735451 0.83282111947002924
-1.7770917675671765 0.82563267142450902
-1.7740820607091077 0.81835654278154923
-1.771206632956124 0.81102632006444719
-1.7683896190948221 0.8036734570414662
-1.765550457224782 0.79632912012644486
-1.7626057241082376 0.78902647058637099
-1.7594712891374309 0.78180320696440075
-1.7560649124490257 0.7747041258556665
-1.7523093926554631 0.76778338768409382
-1.7481362989778597 0.76110610700050363
-1.743490193409861 0.75474884524753449
-1.7383330661893759 0.74879859899490642
-1.7328542772653313 0.74314312899130031
-1.727059731540814 0.73781164047113423
-1.7209619331765256 0.73282983101622079
-1.7145790462193937 0.72821893726911757
-1.7079337914016517 0.72399493834732798
-1.7010522307057272 0.72016797260867593
-1.6939625049153337 0.71674200207799044
-1.6866935946013497 0.71371473463925961
-1.6792741717951529 0.71107779108794444
-1.6717315992507504 0.70881708506800101
-1.6640911188918837 0.70691337069028581
-1.6563752533964105 0.70534290604483407
-1.6486034273908061 0.70407818059673344
-1.6407917993981151 0.70308865946624322
-1.6329532837537766 0.7023415062209224
-1.6250977336658821 0.70180225630789117
-1.617232252302004 0.7014354240522751
-1.6093615976508686 0.70120503601609618
-1.6014886481343247 0.70107509164021997
-1.5936148987053098 0.70100995806831123
-1.5857409607374293 0.70097470978991938
-1.5778670428458912 0.7009354253877963
-1.5699933935320867 0.70085945352685708
-1.5621206900527687 0.70071565875019459
-1.5542503611613674 0.70047465505110407
-1.5463848344289852 0.70010903196838237
-1.5385277018432382 0.69959357448736925
-1.5306838004162791 0.69890547467613395
-1.5228592076781087 0.69802453006268217
-1.5150611551892532 0.69693332153337439
-1.5072978665019852 0.6956173622079882
-1.4995783291832279 0.6940652084439618
-1.4919120133839663 0.69226852486591461
-1.4843085517761236 0.69022209702771065
-1.4767773972693334 0.68792378781484043
-1.4693274756081294 0.68537443672375808
-1.4619668496553435 0.68257770439716015
-1.4547024109064197 0.6795398679183362
-1.4475396116652517 0.67626957506497165
-1.4404822485407058 0.67277756774332542
-1.4335323047452815 0.66907638600295682
-1.4266898553656304 0.66518006430376142
-1.4199530365874906 0.66110383110140647
-1.4133180770099218 0.65686382144772071
-1.4067793868263863 0.6524768103428038
-1.4003296988607878 0.64795997223304824
-1.393960254231515 0.64333066953959961
-1.3876610247224748 0.63860627062786024
-1.381420963671427 0.63380399536596721
-1.3752282772248789 0.62894078450925917
-1.3690707080357809 0.62403318769254623
-1.3629358237911873 0.61909726388203368
-1.356811303276906 0.61414848777336395
-1.3506852129772613 0.60920165583415209
-1.3445462674729793 0.60427078646684362
-1.3383840671788125 0.59936901007417198
-1.3321893073236764 0.594508446581405
-1.3259539526041457 0.58970007011361403
-1.3196713727192921 0.58495356291760314
-1.3133364350810104 0.58027716310242006
-1.3069455524072 0.57567751317201887
-1.3004966846052017 0.57115951845059809
-1.2939892962323181 0.56672622617422042
-1.2874242727059924 0.56237873708739738
-1.2808038001037989 0.55811616173211209
-1.2741312145943027 0.55393563320034567
-1.2674108280395702 0.54983238695411796
-1.2606477359329333 0.54579991647077586
-1.2538476125099915 0.54183021105810414
-1.24701649566897 0.53791407933667135
-1.2401605615019442 0.53404155874205117
-1.2332858851958806 0.53020240809141128
-1.2263981824059946 0.52638667693117747
-1.2195025236589965 0.52258534221730835
-1.2126030147013407 0.51879100013521295
-1.205702438730784 0.51499859890305189

        </DataArray>
        <DataArray type="Float32" Name="u" NumberOfComponents="1">
          0 0.007874015748031496 0.015748031496062992 0.023622047244094488 0.031496062992125984 0.03937007874015748 0.047244094488188976 0.055118110236220472 0.062992125984251968 0.070866141732283464 0.07874015748031496 0.086614173228346455 0.094488188976377951 0.10236220472440945 0.11023622047244094 0.11811023622047244 0.12598425196850394 0.13385826771653545 0.14173228346456693 0.14960629921259844 0.15748031496062992 0.16535433070866143 0.17322834645669291 0.18110236220472442 0.1889763779527559 0.19685039370078741 0.20472440944881889 0.2125984251968504 0.22047244094488189 0.2283464566929134 0.23622047244094488 0.24409448818897639 0.25196850393700787 0.25984251968503935 0.26771653543307089 0.27559055118110237 0.28346456692913385 0.29133858267716534 0.29921259842519687 0.30708661417322836 0.31496062992125984 0.32283464566929132 0.33070866141732286 0.33858267716535434 0.34645669291338582 0.3543307086614173 0.36220472440944884 0.37007874015748032 0.37795275590551181 0.38582677165354329 0.39370078740157483 0.40157480314960631 0.40944881889763779 0.41732283464566927 0.42519685039370081 0.43307086614173229 0.44094488188976377 0.44881889763779526 0.45669291338582679 0.46456692913385828 0.47244094488188976 0.48031496062992124 0.48818897637795278 0.49606299212598426 0.50393700787401574 0.51181102362204722 0.51968503937007871 0.52755905511811019 0.53543307086614178 0.54330708661417326 0.55118110236220474 0.55905511811023623 0.56692913385826771 0.57480314960629919 0.58267716535433067 0.59055118110236215 0.59842519685039375 0.60629921259842523 0.61417322834645671 0.62204724409448819 0.62992125984251968 0.63779527559055116 0.64566929133858264 0.65354330708661412 0.66141732283464572 0.6692913385826772 0.67716535433070868 0.68503937007874016 0.69291338582677164 0.70078740157480313 0.70866141732283461 0.71653543307086609 0.72440944881889768 0.73228346456692917 0.74015748031496065 0.74803149606299213 0.75590551181102361 0.76377952755905509 0.77165354330708658 0.77952755905511806 0.78740157480314965 0.79527559055118113 0.80314960629921262 0.8110236220472441 0.81889763779527558 0.82677165354330706 0.83464566929133854 0.84251968503937003 0.85039370078740162 0.8582677165354331 0.86614173228346458 0.87401574803149606 0.88188976377952755 0.88976377952755903 0.89763779527559051 0.90551181102362199 0.91338582677165359 0.92125984251968507 0.92913385826771655 0.93700787401574803 0.94488188976377951 0.952755905511811 0.96062992125984248 0.96850393700787396 0.97637795275590555 0.98425196850393704 0.99212598425196852 1
        </DataArray>
      </PointData>
      <CellData Scalars="P">
        <DataArray type="Float32" Name="P" NumberOfComponents="1">
          0.0049567455514909252 0.21394840749095317 0.56004622358149203 0.98745974917675183 1.4479238583028682 1.9017083964642143 2.3182241904206649 2.6761945325011647 2.9634075755212299 3.1761016571478256 3.3180587331028941 3.39948956857857 3.4357892885664665 3.446226503412078 3.4526079920567168 3.4779388254475809 3.5450795892080267 3.6753919310454779 3.8873636827682576 4.195216423608767 4.6075209738410683 5.1258775054005206 5.7437524462890117 6.4455981733977197 7.2064064593926327 7.9918552446029949 8.7591939606864457 9.458971280264592 10.037640876127286 10.440990915658348 10.618242464335816 10.526565892789828 10.135689481279378 9.43223500110585 8.423418808113416 7.1398017046309148 5.6368433621702803 3.9950952393754529 2.3189232259257682 0.73366393216570513 -0.61892667380490562 -1.5871721009422737 -2.0182845585255529 -1.7699379625375631 -0.72502925309334787 1.1902063386446071 3.9851654172984459 7.5824036962285239 11.796630745277973 16.319714270602685 20.717579226976291 22.970898263813218 24.637482588032899 25.672661332391549 26.061443925869028 25.817928991850216 24.983252452373467 23.622076382531368 21.817860205766472 19.667319024119099 17.274550529278589 14.745306136933957 12.181810327019514 9.6784190527413685 7.3182796842308182 5.1710339257642426 3.2915072478882248 1.7192614374812789 0.47885165020905218 -0.41937847813375478 -0.97811767108511349 -1.2116530291599266 -1.1442805787463961 -0.8086305186280992 -0.24395282599214457 0.50560868864701336 1.3927356987040169 2.3686326090754326 3.3846832517945713 4.3940417307295121 5.3531238340068557 6.2229580138929439 6.970350436704301 7.5688185541180353 7.999252827798661 8.2502765868672014 8.3182886159726852 8.2071903787133245 7.9278177783159034 7.4971139595405196 6.9370930332796732 6.2736534606823389 5.5353035750351527 4.7518604915724589 3.9531782514049958 3.1679527137641208 2.4226409153440684 1.7405227911745602 1.1409244941722416 0.6386158705206727 0.24339028624921902 -0.040167181485147183 -0.21271775375761517 -0.2800076335299912 -0.25250223332426741 -0.14481294338809395 0.025081568079686124 0.23680881560252218 0.46874721776726502 0.69930201610023879 0.9082530943839201 1.0780954221692494 1.1952747901797691 1.2512085675048721 1.2429767826571403 1.1735760921662397 1.0516507043116756 0.89065162858491465 0.70742901151731064 0.52033060247782237 0.34695970429008566 0.20183348045205993 0.094270017045742754 0.026909991114151651 -0.0046671648700387499 -0.010758527843794745 -0.004354312628171232
        </DataArray>
      </CellData>
      <Points>
        <DataArray type="Float32" NumberOfComponents="3" format="ascii">
          -2.0544943898076773 0.87328376692131204 0
          -2.0467671782046524 0.87176983213040704 0
          -2.0389531350960572 0.87079906591347667 0
          -2.0310919660644067 0.87034793457711801 0
          -2.0232179682929612 0.87038647246695255 0
          -2.0153593103228142 0.8708790584776287 0
          -2.007537562325461 0.87178527147081619 0
          -1.9997674980013991 0.87306076569661406 0
          -1.9920571733062571 0.8746581102521529 0
          -1.9844082728604668 0.87652754497200525 0
          -1.9768167032520276 0.87861761792806936 0
          -1.9692734040806139 0.88087568551092754 0
          -1.9617653424937058 0.88324827325417121 0
          -1.9542766545583361 0.88568131252502891 0
          -1.9467898961244048 0.888120283463257 0
          -1.9392873657152809 0.89051030686684651 0
          -1.931752461334965 0.8927962361235432 0
          -1.9241710310964841 0.89492280404855296 0
          -1.9165326738999677 0.89683487811475127 0
          -1.9088319412352603 0.89847787077636865 0
          -1.9010693853640213 0.89979833936852094 0
          -1.8932523939996997 0.90074479272317876 0
          -1.885395748891239 0.90126869993037584 0
          -1.8775218473254445 0.90132567190200408 0
          -1.8696605332389413 0.90087676050778076 0
          -1.8618484996078879 0.89988979561364491 0
          -1.8541282464199473 0.8983406604055707 0
          -1.8465466080015009 0.89621439314753615 0
          -1.8391528975896825 0.89350600194280372 0
          -1.831996752308177 0.89022089024078943 0
          -1.8251257936475656 0.88637481543709051 0
          -1.8185832423193427 0.88199333976520056 0
          -1.8124056375875539 0.87711077855442587 0
          -1.8066208069454757 0.87176870080632407 0
          -1.801246211589647 0.86601408476423014 0
          -1.7962877585240304 0.85989727044597886 0
          -1.7917391258807056 0.85346987675557484 0
          -1.7875816006993717 0.84678285962099997 0
          -1.7837843853365865 0.83988487908789244 0
          -1.7803052967735451 0.83282111947002924 0
          -1.7770917675671765 0.82563267142450902 0
          -1.7740820607091077 0.81835654278154923 0
          -1.771206632956124 0.81102632006444719 0
          -1.7683896190948221 0.8036734570414662 0
          -1.765550457224782 0.79632912012644486 0
          -1.7626057241082376 0.78902647058637099 0
          -1.7594712891374309 0.78180320696440075 0
          -1.7560649124490257 0.7747041258556665 0
          -1.7523093926554631 0.76778338768409382 0
          -1.7481362989778597 0.76110610700050363 0
          -1.743490193409861 0.75474884524753449 0
          -1.7383330661893759 0.74879859899490642 0
          -1.7328542772653313 0.74314312899130031 0
          -1.727059731540814 0.73781164047113423 0
          -1.7209619331765256 0.73282983101622079 0
          -1.7145790462193937 0.72821893726911757 0
          -1.7079337914016517 0.72399493834732798 0
          -1.7010522307057272 0.72016797260867593 0
          -1.6939625049153337 0.71674200207799044 0
          -1.6866935946013497 0.71371473463925961 0
          -1.6792741717951529 0.71107779108794444 0
          -1.6717315992507504 0.70881708506800101 0
          -1.6640911188918837 0.70691337069028581 0
          -1.6563752533964105 0.70534290604483407 0
          -1.6486034273908061 0.70407818059673344 0
          -1.6407917993981151 0.70308865946624322 0
          -1.6329532837537766 0.7023415062209224 0
          -1.6250977336658821 0.70180225630789117 0
          -1.617232252302004 0.7014354240522751 0
          -1.6093615976508686 0.70120503601609618 0
          -1.6014886481343247 0.70107509164021997 0
          -1.5936148987053098 0.70100995806831123 0
          -1.5857409607374293 0.70097470978991938 0
          -1.5778670428458912 0.7009354253877963 0
          -1.5699933935320867 0.70085945352685708 0
          -1.5621206900527687 0.70071565875019459 0
          -1.5542503611613674 0.70047465505110407 0
          -1.5463848344289852 0.70010903196838237 0
          -1.5385277018432382 0.69959357448736925 0
          -1.5306838004162791 0.69890547467613395 0
          -1.5228592076781087 0.69802453006268217 0
          -1.5150611551892532 0.69693332153337439 0
          -1.5072978665019852 0.6956173622079882 0
          -1.4995783291832279 0.6940652084439618 0
          -1.4919120133839663 0.69226852486591461 0
          -1.4843085517761236 0.69022209702771065 0
          -1.4767773972693334 0.68792378781484043 0
          -1.4693274756081294 0.68537443672375808 0
          -1.4619668496553435 0.68257770439716015 0
          -1.4547024109064197 0.6795398679183362 0
          -1.4475396116652517 0.67626957506497165 0
          -1.4404822485407058 0.67277756774332542 0
          -1.4335323047452815 0.66907638600295682 0
          -1.4266898553656304 0.66518006430376142 0
          -1.4199530365874906 0.66110383110140647 0
          -1.4133180770099218 0.65686382144772071 0
          -1.4067793868263863 0.6524768103428038 0
          -1.4003296988607878 0.64795997223304824 0
          -1.393960254231515 0.64333066953959961 0
          -1.3876610247224748 0.63860627062786024 0
          -1.381420963671427 0.63380399536596721 0
          -1.3752282772248789 0.62894078450925917 0
          -1.3690707080357809 0.62403318769254623 0
          -1.3629358237911873 0.61909726388203368 0
          -1.356811303276906 0.61414848777336395 0
          -1.3506852129772613 0.60920165583415209 0
          -1.3445462674729793 0.60427078646684362 0
          -1.3383840671788125 0.59936901007417198 0
          -1.3321893073236764 0.594508446581405 0
          -1.3259539526041457 0.58970007011361403 0
          -1.3196713727192921 0.58495356291760314 0
          -1.3133364350810104 0.58027716310242006 0
          -1.3069455524072 0.57567751317201887 0
          -1.3004966846052017 0.57115951845059809 0
          -1.2939892962323181 0.56672622617422042 0
          -1.2874242727059924 0.56237873708739738 0
          -1.2808038001037989 0.55811616173211209 0
          -1.2741312145943027 0.55393563320034567 0
          -1.2674108280395702 0.54983238695411796 0
          -1.2606477359329333 0.54579991647077586 0
          -1.2538476125099915 0.54183021105810414 0
          -1.24701649566897 0.53791407933667135 0
          -1.2401605615019442 0.53404155874205117 0
          -1.2332858851958806 0.53020240809141128 0
          -1.2263981824059946 0.52638667693117747 0
          -1.2195025236589965 0.52258534221730835 0
          -1.2126030147013407 0.51879100013521295 0
          -1.205702438730784 0.51499859890305189 0
        </DataArray>
      </Points>
      <Cells>
        <DataArray type="Int32" Name="connectivity" format="ascii">
          0 1 1 2 2 3 3 4 4 5 5 6 6 7 7 8 8 9 9 10 10 11 11 12 12 13 13 14 14 15 15 16 16 17 17 18 18 19 19 20 20 21 21 22 22 23 23 24 24 25 25 26 26 27 27 28 28 29 29 30 30 31 31 32 32 33 33 34 34 35 35 36 36 37 37 38 38 39 39 40 40 41 41 42 42 43 43 44 44 45 45 46 46 47 47 48 48 49 49 50 50 51 51 52 52 53 53 54 54 55 55 56 56 57 57 58 58 59 59 60 60 61 61 62 62 63 63 64 64 65 65 66 66 67 67 68 68 69 69 70 70 71 71 72 72 73 73 74 74 75 75 76 76 77 77 78 78 79 79 80 80 81 81 82 82 83 83 84 84 85 85 86 86 87 87 88 88 89 89 90 90 91 91 92 92 93 93 94 94 95 95 96 96 97 97 98 98 99 99 100 100 101 101 102 102 103 103 104 104 105 105 106 106 107 107 108 108 109 109 110 110 111 111 112 112 113 113 114 114 115 115 116 116 117 117 118 118 119 119 120 120 121 121 122 122 123 123 124 124 125 125 126 126 127 
        </DataArray>
        <DataArray type="Int32" Name="offsets" format="ascii">
          2 4 6 8 10 12 14 16 18 20 22 24 26 28 30 32 34 36 38 40 42 44 46 48 50 52 54 56 58 60 62 64 66 68 70 72 74 76 78 80 82 84 86 88 90 92 94 96 98 100 102 104 106 108 110 112 114 116 118 120 122 124 126 128 130 132 134 136 138 140 142 144 146 148 150 152 154 156 158 160 162 164 166 168 170 172 174 176 178 180 182 184 186 188 190 192 194 196 198 200 202 204 206 208 210 212 214 216 218 220 222 224 226 228 230 232 234 236 238 240 242 244 246 248 250 252 254 
        </DataArray>
        <DataArray type="Int32" Name="types" format="ascii">
          3 3 3 3 3 3 3 3 3 3 3 3 3 3 3 3 3 3 3 3 3 3 3 3 3 3 3 3 3 3 3 3 3 3 3 3 3 3 3 3 3 3 3 3 3 3 3 3 3 3 3 3 3 3 3 3 3 3 3 3 3 3 3 3 3 3 3 3 3 3 3 3 3 3 3 3 3 3 3 3 3 3 3 3 3 3 3 3 3 3 3 3 3 3 3 3 3 3 3 3 3 3 3 3 3 3 3 3 3 3 3 3 3 3 3 3 3 3 3 3 3 3 3 3 3 3 3         </DataArray>
      </Cells>
    </Piece>
  </UnstructuredGrid>
</VTKFile>
<!-- DATA


-->
