<?xml version="1.0"?>
<VTKFile type="UnstructuredGrid" version="0.1" byte_order="LittleEndian">
  <UnstructuredGrid>
    <Piece NumberOfPoints="128" NumberOfCells="127">
      <PointData Scalars="u">
        <DataArray type="Float32" Name="Y" NumberOfComponents="2">

0 0
0.045294695528025529 -0.028928431063018831
0.067984866784039408 -0.014143849689334645
0.092543439488448592 0.00087428641334380249
0.12201533869838357 0.014940434012391665
0.15695094631644954 0.030483721141329124
0.19803185962291264 0.045301338552777369
0.24349850050042676 0.059905970893742298
0.29240589394130334 0.074019510804421651
0.34438840718353486 0.087909576337910925
0.39961342407873984 0.10258351097370104
0.45672118743138523 0.1170402157292188
0.51210585362160554 0.13118003026720584
0.56269847282989571 0.14467012149421465
0.60623474839583535 0.15733317652084386
0.64141842407621275 0.16914430911017433
0.66789579325481874 0.18018140170067543
0.68695760469824363 0.18996432587541268
0.69760830042959565 0.20044520194584053
0.69894300599288328 0.20924904246105375
0.69217557821343145 0.21468242744976659
0.67575163102309577 0.2194914779702781
0.64953691294512406 0.22032539878649995
0.61724634497017861 0.21326674553983574
0.57726338832959578 0.20471188514850081
0.53539068690302261 0.18557863156434429
0.48786723774553775 0.16419460710364192
0.44269699340450508 0.12912863842413208
0.39329084734335462 0.090420838198709025
0.35662474002501526 0.026731107743467351
0.2907955412326888 -0.018910657651893596
0.22161962182174219 -0.06838578245491192
0.16171971151725203 -0.12698640590547336
0.11244840807380797 -0.19072862523024148
0.074303509381334898 -0.25682398015025998
0.046245840843324094 -0.32285202427060811
0.02958991381604139 -0.38770040365442415
0.022856191380493183 -0.44881273804641836
0.025291576944525388 -0.50449902158380089
0.035603999616630966 -0.55327224905651984
0.052570722920006918 -0.59397178733884703
0.074900122500995828 -0.62558823911008443
0.10093867031544969 -0.64727907193398371
0.12934412463885736 -0.65846038365118098
0.1584910431142455 -0.65879927088269863
0.18674027194072676 -0.64841518095631701
0.21159185300790639 -0.62803648059203043
0.23387659653954995 -0.59771765417721923
0.25137704930194849 -0.55786229064083626
0.26312122706551461 -0.5098328006260936
0.26740685876728632 -0.456617092803691
0.26674468311238153 -0.40031365725979523
0.25965461154350611 -0.34497256682202754
0.25003905622429956 -0.29299509445293681
0.23786843279261441 -0.24904661641163967
0.2271986366630408 -0.2160152445805317
0.22211658396078715 -0.19502230195774348
0.22438385523986198 -0.18819027901713872
0.2363672575266694 -0.19791746079346431
0.26286523153439545 -0.22271146154409049
0.3052934079886786 -0.26106217680751614
0.36344270136784257 -0.31364402037811595
0.44047528176234485 -0.37814224806247476
0.53688081898031403 -0.45450202629690645
0.65355781025821369 -0.54376015846794468
0.79269621626713582 -0.6441915254502083
0.95366366251275414 -0.75562429417035915
1.136195949160304 -0.87786626489469055
1.3397172497876457 -1.0111500444686721
1.5631706637258509 -1.1560544164661746
1.8048578935263357 -1.3134385377344182
2.0623039359614292 -1.4843634047204362
2.3321403368464648 -1.6700412057313578
2.6100395461785708 -1.8717146627085308
2.8906942619664551 -2.0904975362802016
3.1688032139065974 -2.3259380677862724
3.4399178003269224 -2.5786622661337297
3.6984304527018881 -2.8526946303121758
3.9391871284976809 -3.1499686822045794
4.1562205536749826 -3.4716841864716343
4.3434015503343382 -3.8176034848605638
4.4941780424025497 -4.1867423772204448
4.6019872784383011 -4.5769310967759349
4.6604879761989757 -4.9846642072048803
4.6638267000141642 -5.4049835820768521
4.6069366062287651 -5.8314092888228322
4.485867330206915 -6.2559320798867839
4.298136419060798 -6.669086662077925
4.0430895664735624 -7.0601232266159943
3.7222468637867223 -7.4172936632804234
3.3410028542278529 -7.7276565712874001
2.9147250110550629 -7.9796626217711673
2.444988540220153 -8.1706151905527253
1.9426214192719968 -8.2954014543316141
1.4191436062309331 -8.350331186223281
0.88648106213560085 -8.3332043460217395
0.35669740537432021 -8.2433023184419127
-0.15824279617568598 -8.0813416252902837
-0.64668597626103863 -7.8494295371285805
-1.0975018936249852 -7.5510525095209378
-1.5003359503143949 -7.1911102169107481
-1.8458779984650364 -6.7760036238956287
-2.126044183211814 -6.3142607637708839
-2.3431173866537947 -5.8085465078216778
-2.4812267379514292 -5.2688060204594045
-2.535632335055654 -4.7052497979687722
-2.5125242323395973 -4.1216885240574284
-2.4030177423930774 -3.5330453168178031
-2.2167667673729183 -2.9434947775683811
-1.9510382271993216 -2.3705427209885337
-1.622897267341233 -1.8187947067382988
-1.2392481614995043 -1.3055510138722013
-0.823051790391779 -0.83525959356203439
-0.39107098728454925 -0.42243269284844831
0.028850729052826752 -0.076965763237718851
0.40541509370701173 0.18913229231468048
0.70635704648884001 0.3605030217916772
0.89735654115777685 0.4320535060409002
0.95400666305594295 0.40513693070376111
0.86605095899491202 0.28581929463492445
0.63405397248285145 0.10974268464143334
0.27921268439184088 -0.045703378754725812
-0.10499083985290768 -0.16009291699649922
-0.40632819717346808 -0.20203776315960206
-0.50527256342604532 -0.089544768669296698
-0.36160808232499225 -0.044867573506589098
-0.13305663639259019 0.013111035830070313
0 0

        </DataArray>
        <DataArray type="Float32" Name="W" NumberOfComponents="2">

-28.985864083749707 9.3524268654838654
-28.982411487920078 9.3453495303248193
-28.97917677461497 9.3381700757896038
-28.976149558006302 9.3309007713245968
-28.973312031918862 9.3235554194616839
-28.970651088200071 9.3161443395841061
-28.968144720966922 9.3086796306158703
-28.965776987619307 9.3011698562963847
-28.963530801419157 9.2936228878844052
-28.961388960587623 9.286045689903716
-28.959332546311401 9.278444898836895
-28.957332349587549 9.270829147698997
-28.955367287919131 9.2632042717370471
-28.953415789436562 9.2555759181534167
-28.951456822111815 9.2479494716948381
-28.94946828571242 9.2403306607688513
-28.947427909086649 9.2327255336578791
-28.945314467055848 9.2251403355484651
-28.943093770914224 9.2175857725265473
-28.940744362868902 9.2100701541160923
-28.938243937083666 9.202603311741802
-28.935558471763287 9.1952008709466817
-28.932666185666541 9.1878766037222821
-28.929547231195251 9.1806457614740928
-28.92616706202455 9.1735330508126385
-28.922507890312573 9.166559503884729
-28.918537070606764 9.1597582728024936
-28.91424035773316 9.153157732105484
-28.909589384301118 9.1468014281590495
-28.904576009609681 9.140726405625367
-28.899180068881705 9.1349879482126877
-28.893416883637922 9.1296186361914788
-28.887319160395766 9.1246327050251583
-28.880918142992947 9.1200428427310207
-28.874244648662881 9.1158592286265829
-28.867329052879377 9.112089464390996
-28.860202060345987 9.1087366894480919
-28.852892180572123 9.1058042129772581
-28.845427050252866 9.1032933721997598
-28.83783321682656 9.1012041125967293
-28.830136240657499 9.0995347507051605
-28.822360592719065 9.0982823606011198
-28.814529627036137 9.097443199682786
-28.806665680104924 9.0970123455946243
-28.798790044568808 9.0969843675075914
-28.790923053805777 9.0973531818009619
-28.783084098903299 9.0981118125977165
-28.775291188082289 9.0992495449610207
-28.767561663264704 9.1007586850396027
-28.759912088388447 9.1026311766646941
-28.75235828298473 9.1048585973494269
-28.744913968590868 9.1074281678633788
-28.737593028696658 9.1103304890257437
-28.730406634447466 9.1135514286726682
-28.72336639656768 9.1170802860943478
-28.716480360920936 9.1209011926222416
-28.709754468205979 9.1249973088083909
-28.703195306476132 9.129355308637054
-28.696807335022768 9.1339604713807354
-28.69058940205834 9.1387926450525789
-28.684541190937477 9.143835521186535
-28.678663711200244 9.1490762798125154
-28.672952237817178 9.1544973714217015
-28.667403725992067 9.160085039060279
-28.66201310209253 9.1658250785008661
-28.65676871114205 9.1716989289082527
-28.651661047478111 9.1776919620021644
-28.64667854215261 9.1837893625154763
-28.64180759946716 9.189976173383549
-28.637032659811549 9.1962373095272127
-28.632336293130994 9.2025575396058219
-28.627699333103475 9.2089214395759011
-28.62310111316766 9.2153133592100325
-28.618519596578576 9.2217172510307091
-28.613931725588301 9.2281166005995949
-28.609313779521155 9.2344943114460154
-28.60464828028082 9.2408373717884782
-28.599911365215146 9.2471273574142732
-28.595079529159012 9.2533448287205466
-28.590129302235663 9.259468591582845
-28.585038993806492 9.2654765797259167
-28.579788452518201 9.2713452436745776
-28.574359521625485 9.277049506541907
-28.568736504338208 9.2825627916780231
-28.562906626624301 9.2878571347122687
-28.556860480524655 9.292903388842916
-28.55059243219916 9.2976715334279998
-28.54410097256336 9.3021310883187738
-28.537388988106262 9.306251633262054
-28.530463924245616 9.3100034187942065
-28.523337831219919 9.3133580787011034
-28.516031044470903 9.3162988252768795
-28.508563151686349 9.3188027280962
-28.500957285056124 9.3208499679636976
-28.493239564746261 9.3224242095484975
-28.485438486287897 9.3235129053809906
-28.477584267093544 9.3241075237996327
-28.469708166746177 9.3242036979125036
-28.46184179423696 9.3238012945845252
-28.45401641422897 9.3229044028985975
-28.446262265269237 9.3215212359687776
-28.438607905346782 9.3196639438246596
-28.431079238730852 9.3173495214941209
-28.423703925246187 9.3145853417211857
-28.416503441352596 9.311393563675308
-28.409494794027513 9.3078002806982827
-28.402698004887675 9.3038209695224801
-28.396123334401622 9.2994846832315847
-28.389784751764793 9.2948102300523896
-28.383683757559854 9.2898298217804935
-28.37782814245276 9.2845632380189027
-28.372214302390173 9.2790397884796398
-28.366845797778879 9.2732777110702873
-28.361714008540154 9.2673039452797195
-28.356810620075869 9.2611414121736395
-28.352126975950863 9.2548103307900238
-28.347658744289685 9.2483254739364646
-28.343421130328242 9.2416876380282691
-28.339438605165359 9.2348936681370262
-28.335745185596082 9.2279382316773866
-28.332404449576511 9.2208065668249759
-28.329511773594575 9.2134819288678997
-28.327095996603603 9.2059866430295472
-28.325182429708711 9.1983478273990116
-28.323776085405438 9.1905996760477056
-28.322395165952404 9.182847130412922
-28.320918107083148 9.1751124821821524
-28.319205551617973 9.1674266836178155

        </DataArray>
        <DataArray type="Float32" Name="u" NumberOfComponents="1">
          0 0.007874015748031496 0.015748031496062992 0.023622047244094488 0.031496062992125984 0.03937007874015748 0.047244094488188976 0.055118110236220472 0.062992125984251968 0.070866141732283464 0.07874015748031496 0.086614173228346455 0.094488188976377951 0.10236220472440945 0.11023622047244094 0.11811023622047244 0.12598425196850394 0.13385826771653545 0.14173228346456693 0.14960629921259844 0.15748031496062992 0.16535433070866143 0.17322834645669291 0.18110236220472442 0.1889763779527559 0.19685039370078741 0.20472440944881889 0.2125984251968504 0.22047244094488189 0.2283464566929134 0.23622047244094488 0.24409448818897639 0.25196850393700787 0.25984251968503935 0.26771653543307089 0.27559055118110237 0.28346456692913385 0.29133858267716534 0.29921259842519687 0.30708661417322836 0.31496062992125984 0.32283464566929132 0.33070866141732286 0.33858267716535434 0.34645669291338582 0.3543307086614173 0.36220472440944884 0.37007874015748032 0.37795275590551181 0.38582677165354329 0.39370078740157483 0.40157480314960631 0.40944881889763779 0.41732283464566927 0.42519685039370081 0.43307086614173229 0.44094488188976377 0.44881889763779526 0.45669291338582679 0.46456692913385828 0.47244094488188976 0.48031496062992124 0.48818897637795278 0.49606299212598426 0.50393700787401574 0.51181102362204722 0.51968503937007871 0.52755905511811019 0.53543307086614178 0.54330708661417326 0.55118110236220474 0.55905511811023623 0.56692913385826771 0.57480314960629919 0.58267716535433067 0.59055118110236215 0.59842519685039375 0.60629921259842523 0.61417322834645671 0.62204724409448819 0.62992125984251968 0.63779527559055116 0.64566929133858264 0.65354330708661412 0.66141732283464572 0.6692913385826772 0.67716535433070868 0.68503937007874016 0.69291338582677164 0.70078740157480313 0.70866141732283461 0.71653543307086609 0.72440944881889768 0.73228346456692917 0.74015748031496065 0.74803149606299213 0.75590551181102361 0.76377952755905509 0.77165354330708658 0.77952755905511806 0.78740157480314965 0.79527559055118113 0.80314960629921262 0.8110236220472441 0.81889763779527558 0.82677165354330706 0.83464566929133854 0.84251968503937003 0.85039370078740162 0.8582677165354331 0.86614173228346458 0.87401574803149606 0.88188976377952755 0.88976377952755903 0.89763779527559051 0.90551181102362199 0.91338582677165359 0.92125984251968507 0.92913385826771655 0.93700787401574803 0.94488188976377951 0.952755905511811 0.96062992125984248 0.96850393700787396 0.97637795275590555 0.98425196850393704 0.99212598425196852 1
        </DataArray>
      </PointData>
      <CellData Scalars="P">
        <DataArray type="Float32" Name="P" NumberOfComponents="1">
          0.024920538801164453 0.080675508561139836 0.12988966725431242 0.16112603269398648 0.17379302847407591 0.16973642602032923 0.15619237799564062 0.13987150585124741 0.12530614552662567 0.11649436977376673 0.12527535491308814 0.15138551264362141 0.19741997514842879 0.26174425778736099 0.34192885147351287 0.43381067679032187 0.53310074290894249 0.64705035428439894 0.75988361918430314 0.86720529385615719 0.97346111898849741 1.0622518555902312 1.1289756284705375 1.1860036952646971 1.2247711153143763 1.2595591475232526 1.2791139494586778 1.298582209577092 1.2963046982126731 1.2748414337292195 1.1896251224245709 1.0792516972903172 0.97259055984759679 0.88634856610826374 0.8280456781153529 0.80008513979071605 0.80956469119331431 0.86102792367551928 0.95758194199367752 1.100789611428403 1.2920196953587755 1.5328243077708625 1.8237770963040119 2.165695999185417 2.557864104076772 2.9971466222924281 3.4750378038799199 3.9974579372623777 4.5615102989432827 5.1578700954675529 5.7632080868940436 6.3708287187613237 6.9520530977316639 7.4967349451018794 7.9730940417419598 8.3647195252167492 8.6692856932863211 8.8748239364142307 8.9708029213129095 8.9679312479314195 8.8750722950970538 8.7000346440231269 8.4499072458597997 8.1326884671545212 7.7698230324874755 7.3700154831638622 6.9531905260282976 6.5409922836435532 6.1572365784600791 5.8278875965351666 5.5804995325407516 5.4427741647258632 5.4419310479488132 5.6017427303063823 5.9405439622876273 6.4194469356756239 7.0952337482489032 7.9737617702039003 9.0620355579065119 10.349498365539727 11.824538172637842 13.468814671781901 15.25717918464856 17.157749674765736 19.132124714079865 21.135681395209492 23.11800755549131 25.023507105930989 26.792316959712721 28.361516823379443 29.640565121904721 30.643406085483079 31.35432179096485 31.76272391348806 31.862300989305801 31.650014966944681 31.125235781078366 30.289312140550777 29.145832120477774 27.701716673086057 25.969143015669122 23.97373067354372 21.682259442441534 19.149272160026957 16.408802719457885 13.413221063555964 10.282868135576329 6.9709816009356063 3.6557641583579801 0.28381754469453352 -2.9514519715907106 -6.0883776367084605 -8.9156695614114518 -11.373820257544695 -13.383436110491134 -14.894819330128557 -15.898867143798146 -16.231425950069749 -15.686188242794564 -13.955596543426687 -10.853237387319581 -7.1298753514208792 -3.607022180193169 -1.4298388645872346 -1.3845536954669606 -0.96046394067907115 -0.025903735587395931
        </DataArray>
      </CellData>
      <Points>
        <DataArray type="Float32" NumberOfComponents="3" format="ascii">
          -28.985864083749707 9.3524268654838654 0
          -28.982411487920078 9.3453495303248193 0
          -28.97917677461497 9.3381700757896038 0
          -28.976149558006302 9.3309007713245968 0
          -28.973312031918862 9.3235554194616839 0
          -28.970651088200071 9.3161443395841061 0
          -28.968144720966922 9.3086796306158703 0
          -28.965776987619307 9.3011698562963847 0
          -28.963530801419157 9.2936228878844052 0
          -28.961388960587623 9.286045689903716 0
          -28.959332546311401 9.278444898836895 0
          -28.957332349587549 9.270829147698997 0
          -28.955367287919131 9.2632042717370471 0
          -28.953415789436562 9.2555759181534167 0
          -28.951456822111815 9.2479494716948381 0
          -28.94946828571242 9.2403306607688513 0
          -28.947427909086649 9.2327255336578791 0
          -28.945314467055848 9.2251403355484651 0
          -28.943093770914224 9.2175857725265473 0
          -28.940744362868902 9.2100701541160923 0
          -28.938243937083666 9.202603311741802 0
          -28.935558471763287 9.1952008709466817 0
          -28.932666185666541 9.1878766037222821 0
          -28.929547231195251 9.1806457614740928 0
          -28.92616706202455 9.1735330508126385 0
          -28.922507890312573 9.166559503884729 0
          -28.918537070606764 9.1597582728024936 0
          -28.91424035773316 9.153157732105484 0
          -28.909589384301118 9.1468014281590495 0
          -28.904576009609681 9.140726405625367 0
          -28.899180068881705 9.1349879482126877 0
          -28.893416883637922 9.1296186361914788 0
          -28.887319160395766 9.1246327050251583 0
          -28.880918142992947 9.1200428427310207 0
          -28.874244648662881 9.1158592286265829 0
          -28.867329052879377 9.112089464390996 0
          -28.860202060345987 9.1087366894480919 0
          -28.852892180572123 9.1058042129772581 0
          -28.845427050252866 9.1032933721997598 0
          -28.83783321682656 9.1012041125967293 0
          -28.830136240657499 9.0995347507051605 0
          -28.822360592719065 9.0982823606011198 0
          -28.814529627036137 9.097443199682786 0
          -28.806665680104924 9.0970123455946243 0
          -28.798790044568808 9.0969843675075914 0
          -28.790923053805777 9.0973531818009619 0
          -28.783084098903299 9.0981118125977165 0
          -28.775291188082289 9.0992495449610207 0
          -28.767561663264704 9.1007586850396027 0
          -28.759912088388447 9.1026311766646941 0
          -28.75235828298473 9.1048585973494269 0
          -28.744913968590868 9.1074281678633788 0
          -28.737593028696658 9.1103304890257437 0
          -28.730406634447466 9.1135514286726682 0
          -28.72336639656768 9.1170802860943478 0
          -28.716480360920936 9.1209011926222416 0
          -28.709754468205979 9.1249973088083909 0
          -28.703195306476132 9.129355308637054 0
          -28.696807335022768 9.1339604713807354 0
          -28.69058940205834 9.1387926450525789 0
          -28.684541190937477 9.143835521186535 0
          -28.678663711200244 9.1490762798125154 0
          -28.672952237817178 9.1544973714217015 0
          -28.667403725992067 9.160085039060279 0
          -28.66201310209253 9.1658250785008661 0
          -28.65676871114205 9.1716989289082527 0
          -28.651661047478111 9.1776919620021644 0
          -28.64667854215261 9.1837893625154763 0
          -28.64180759946716 9.189976173383549 0
          -28.637032659811549 9.1962373095272127 0
          -28.632336293130994 9.2025575396058219 0
          -28.627699333103475 9.2089214395759011 0
          -28.62310111316766 9.2153133592100325 0
          -28.618519596578576 9.2217172510307091 0
          -28.613931725588301 9.2281166005995949 0
          -28.609313779521155 9.2344943114460154 0
          -28.60464828028082 9.2408373717884782 0
          -28.599911365215146 9.2471273574142732 0
          -28.595079529159012 9.2533448287205466 0
          -28.590129302235663 9.259468591582845 0
          -28.585038993806492 9.2654765797259167 0
          -28.579788452518201 9.2713452436745776 0
          -28.574359521625485 9.277049506541907 0
          -28.568736504338208 9.2825627916780231 0
          -28.562906626624301 9.2878571347122687 0
          -28.556860480524655 9.292903388842916 0
          -28.55059243219916 9.2976715334279998 0
          -28.54410097256336 9.3021310883187738 0
          -28.537388988106262 9.306251633262054 0
          -28.530463924245616 9.3100034187942065 0
          -28.523337831219919 9.3133580787011034 0
          -28.516031044470903 9.3162988252768795 0
          -28.508563151686349 9.3188027280962 0
          -28.500957285056124 9.3208499679636976 0
          -28.493239564746261 9.3224242095484975 0
          -28.485438486287897 9.3235129053809906 0
          -28.477584267093544 9.3241075237996327 0
          -28.469708166746177 9.3242036979125036 0
          -28.46184179423696 9.3238012945845252 0
          -28.45401641422897 9.3229044028985975 0
          -28.446262265269237 9.3215212359687776 0
          -28.438607905346782 9.3196639438246596 0
          -28.431079238730852 9.3173495214941209 0
          -28.423703925246187 9.3145853417211857 0
          -28.416503441352596 9.311393563675308 0
          -28.409494794027513 9.3078002806982827 0
          -28.402698004887675 9.3038209695224801 0
          -28.396123334401622 9.2994846832315847 0
          -28.389784751764793 9.2948102300523896 0
          -28.383683757559854 9.2898298217804935 0
          -28.37782814245276 9.2845632380189027 0
          -28.372214302390173 9.2790397884796398 0
          -28.366845797778879 9.2732777110702873 0
          -28.361714008540154 9.2673039452797195 0
          -28.356810620075869 9.2611414121736395 0
          -28.352126975950863 9.2548103307900238 0
          -28.347658744289685 9.2483254739364646 0
          -28.343421130328242 9.2416876380282691 0
          -28.339438605165359 9.2348936681370262 0
          -28.335745185596082 9.2279382316773866 0
          -28.332404449576511 9.2208065668249759 0
          -28.329511773594575 9.2134819288678997 0
          -28.327095996603603 9.2059866430295472 0
          -28.325182429708711 9.1983478273990116 0
          -28.323776085405438 9.1905996760477056 0
          -28.322395165952404 9.182847130412922 0
          -28.320918107083148 9.1751124821821524 0
          -28.319205551617973 9.1674266836178155 0
        </DataArray>
      </Points>
      <Cells>
        <DataArray type="Int32" Name="connectivity" format="ascii">
          0 1 1 2 2 3 3 4 4 5 5 6 6 7 7 8 8 9 9 10 10 11 11 12 12 13 13 14 14 15 15 16 16 17 17 18 18 19 19 20 20 21 21 22 22 23 23 24 24 25 25 26 26 27 27 28 28 29 29 30 30 31 31 32 32 33 33 34 34 35 35 36 36 37 37 38 38 39 39 40 40 41 41 42 42 43 43 44 44 45 45 46 46 47 47 48 48 49 49 50 50 51 51 52 52 53 53 54 54 55 55 56 56 57 57 58 58 59 59 60 60 61 61 62 62 63 63 64 64 65 65 66 66 67 67 68 68 69 69 70 70 71 71 72 72 73 73 74 74 75 75 76 76 77 77 78 78 79 79 80 80 81 81 82 82 83 83 84 84 85 85 86 86 87 87 88 88 89 89 90 90 91 91 92 92 93 93 94 94 95 95 96 96 97 97 98 98 99 99 100 100 101 101 102 102 103 103 104 104 105 105 106 106 107 107 108 108 109 109 110 110 111 111 112 112 113 113 114 114 115 115 116 116 117 117 118 118 119 119 120 120 121 121 122 122 123 123 124 124 125 125 126 126 127 
        </DataArray>
        <DataArray type="Int32" Name="offsets" format="ascii">
          2 4 6 8 10 12 14 16 18 20 22 24 26 28 30 32 34 36 38 40 42 44 46 48 50 52 54 56 58 60 62 64 66 68 70 72 74 76 78 80 82 84 86 88 90 92 94 96 98 100 102 104 106 108 110 112 114 116 118 120 122 124 126 128 130 132 134 136 138 140 142 144 146 148 150 152 154 156 158 160 162 164 166 168 170 172 174 176 178 180 182 184 186 188 190 192 194 196 198 200 202 204 206 208 210 212 214 216 218 220 222 224 226 228 230 232 234 236 238 240 242 244 246 248 250 252 254 
        </DataArray>
        <DataArray type="Int32" Name="types" format="ascii">
          3 3 3 3 3 3 3 3 3 3 3 3 3 3 3 3 3 3 3 3 3 3 3 3 3 3 3 3 3 3 3 3 3 3 3 3 3 3 3 3 3 3 3 3 3 3 3 3 3 3 3 3 3 3 3 3 3 3 3 3 3 3 3 3 3 3 3 3 3 3 3 3 3 3 3 3 3 3 3 3 3 3 3 3 3 3 3 3 3 3 3 3 3 3 3 3 3 3 3 3 3 3 3 3 3 3 3 3 3 3 3 3 3 3 3 3 3 3 3 3 3 3 3 3 3 3 3         </DataArray>
      </Cells>
    </Piece>
  </UnstructuredGrid>
</VTKFile>
<!-- DATA


-->
