<?xml version="1.0"?>
<VTKFile type="UnstructuredGrid" version="0.1" byte_order="LittleEndian">
  <UnstructuredGrid>
    <Piece NumberOfPoints="128" NumberOfCells="127">
      <PointData Scalars="u">
        <DataArray type="Float32" Name="Y" NumberOfComponents="2">

0 0
0.015217300820939717 6.6566793240543684e-05
0.041650408634583913 0.0047602573312996201
0.078279748343636796 0.0099167217119101713
0.12224792346610283 0.015237557071457479
0.16920850853591432 0.020689572123731719
0.2158493433198474 0.026229527934495376
0.25980688725672935 0.031875956261019363
0.29967244477858007 0.037661428479520288
0.33501095000937481 0.043674433808320742
0.36678939407145655 0.048301638185885475
0.3927818967288606 0.054915100008440694
0.41014103169787836 0.060529576913222721
0.41702562861928821 0.064086041324911178
0.4138236059248484 0.063883305846073393
0.4043049760640266 0.055642392006364019
0.38613370441771921 0.045790808151564937
0.36026504763890943 0.028589310473769593
0.33330273177411979 -0.0042410154981053806
0.29944225072602798 -0.04177425253726369
0.25696509764838071 -0.083668841848474174
0.20146722640692258 -0.11192871193625907
0.15238691972163018 -0.1452356472917774
0.11289114546744473 -0.18165609314986603
0.082760563948368268 -0.21736355075669408
0.06319934756119959 -0.2510260250866056
0.051749502053774002 -0.28003896523949756
0.048665417492372472 -0.30459230844242929
0.050542407784176582 -0.32372401791542094
0.057630528611375298 -0.33878765382552961
0.066580022083740295 -0.35002252160573916
0.078383026258479246 -0.35920182821576846
0.090198477681328451 -0.36690494202064078
0.10386925736397105 -0.3743720947707494
0.11816625477806236 -0.38176820263133215
0.13325001807611339 -0.38962919650083311
0.1478607115359723 -0.39855248666801507
0.164292293189952 -0.40825425599805482
0.18169748851422463 -0.41761269522045574
0.19964614904109598 -0.42553819062599008
0.21659235427449405 -0.43124698060772187
0.23399489249075392 -0.43239800159801539
0.24949793681221372 -0.42697218167604434
0.26030452901255424 -0.41403408541341885
0.26696724888757156 -0.39130570241789514
0.26545430372274614 -0.35853793661459121
0.25616158269771627 -0.31405939327179583
0.23547498829180366 -0.2594529155263009
0.20363153461467023 -0.1960866870558047
0.16193703605948864 -0.12525689569203849
0.10977464275913217 -0.052316440985935776
0.051698823629158411 0.018066153477117083
-0.0075468219481247059 0.080354853876711832
-0.061880603670144058 0.12951544149680932
-0.10482368105462954 0.16082402341306537
-0.1296332135355153 0.17039452004821087
-0.13010504418486066 0.15584406016756355
-0.10202195419169041 0.11646781887859038
-0.043558852152209497 0.054693170000235325
0.043740109658261875 -0.027237967524846824
0.1584330432863055 -0.1291722861470484
0.30063642490015807 -0.24976680629184361
0.46885087894188504 -0.39023631539605325
0.66165963921607429 -0.55039673065091144
0.87750276205755318 -0.73275948819917336
1.1117589227535909 -0.94013734250165326
1.3578187215097599 -1.1710625371614494
1.6074181507856371 -1.4250951955595517
1.8516336820173049 -1.7010907269150095
2.0808158029850286 -1.9972151262581423
2.2851046168228137 -2.310200836150301
2.4602424535979623 -2.6345541917664881
2.5975850269788157 -2.9712348865752816
2.6913526581183502 -3.317098638465191
2.7355889603501966 -3.6675545514804679
2.7260353946561704 -4.0154958442973712
2.6593689453792466 -4.3525512215611233
2.5340369597124237 -4.6688621450775631
2.3506713234297796 -4.9533229969039629
2.1124609107133128 -5.1939689536256086
1.825469171458779 -5.3785228685985569
1.4981712815836914 -5.4952894681123476
1.1540567136536646 -5.5360387136462332
0.79744645731284347 -5.5019614381971529
0.44228771297244079 -5.3941647673942388
0.10193327175050305 -5.216308593659674
-0.21157969729971077 -4.9744524058906965
-0.48804254161806182 -4.6766886425574077
-0.71944438655625598 -4.3326377459125398
-0.90017461017070444 -3.9528582180402063
-1.0270062838891056 -3.5482510256122755
-1.0989794997081632 -3.1294819096181765
-1.1169824290124208 -2.7065799615978712
-1.0836109501956317 -2.2884302029047281
-1.0024674042599666 -1.8825797982042038
-0.87774924027437029 -1.4950749908676315
-0.71378334665280541 -1.1304534450941255
-0.51463841611033057 -0.79183972035961514
-0.28381386706647704 -0.48118323796114365
-0.024129715408182685 -0.1995789785956428
0.26216867196862736 0.05229847829548831
0.57735197769099134 0.26813053732395176
0.91582333265859706 0.4576132809670086
1.2841561745619334 0.61811529660597064
1.680830796903185 0.74970169799428665
2.0881943589228458 0.86808638896616086
2.5164558366422924 0.95822185942486693
2.9673138725263564 1.0251207049302238
3.4428747433831228 1.0735422545195556
3.9427240959482237 1.1078128920303385
4.4615304067801338 1.1303820931282311
4.986338630431133 1.1447578104892053
5.4961773045404563 1.151681662909344
5.9606868882707884 1.1520253700090164
6.3419624455157235 1.1426608691727929
6.5967435606294993 1.1162307870641706
6.681041376886756 1.0642923381138349
6.5561403119916557 0.97704936947102095
6.1948105155831099 0.84637095192189116
5.588549906382152 0.67278071772126646
4.7551518684019989 0.47134645862959579
3.7458470786919764 0.26769063703922502
2.6522439450265969 0.09860008812108953
1.6118877614170113 -0.0056817821980399913
0.81210675732407001 -0.022511860410405971
0.32751400976182093 -0.014899006588489198
0.080015770017011961 -0.013286456689974928
0 0

        </DataArray>
        <DataArray type="Float32" Name="W" NumberOfComponents="2">

-35.301828419334456 11.121824781553432
-35.300766557015294 11.114022659259618
-35.299756139475178 11.106213730363153
-35.298776514272369 11.098400889957595
-35.297794756762976 11.090588315943318
-35.296787432220796 11.082778982322788
-35.295730243302778 11.074976212944255
-35.294598254575192 11.067183898088809
-35.293366056474078 11.05940673717121
-35.292007805209664 11.051650516811952
-35.290497468887565 11.043922370716141
-35.288796125164495 11.036233892221219
-35.286877135256866 11.028596679557189
-35.284714371964213 11.021024715682254
-35.282283614346227 11.013534279468248
-35.279560371160613 11.006144920698333
-35.276507132639978 10.998885416104189
-35.273102361361239 10.991783674976814
-35.269328301358819 10.984870732428464
-35.265152504885272 10.978192338559857
-35.260564429072225 10.971789646517697
-35.255558631931279 10.965708092957026
-35.250163350635248 10.959969397550191
-35.244408761497183 10.954591220966021
-35.238323932256826 10.94958988197097
-35.231939087540837 10.94497784950919
-35.225282853017319 10.94076711394543
-35.218384848480653 10.936965527876593
-35.211272916321846 10.9335811778343
-35.203975572875656 10.930617879028091
-35.196519629488868 10.928080104537248
-35.188932245912959 10.925967743796097
-35.181238941202899 10.924281735766545
-35.173465138228089 10.923018147934723
-35.165634684127319 10.922174482380351
-35.157770610726466 10.921746409020912
-35.14989497242005 10.921728390240576
-35.142028621790317 10.922109971790483
-35.13419106501042 10.922882521878797
-35.126400604236721 10.924036594216181
-35.118674226054431 10.925561471418503
-35.11102671317591 10.927442078728015
-35.103472192151521 10.929666780204792
-35.096023616112987 10.932223678912081
-35.088691165276082 10.935096496251374
-35.081485131616773 10.938272954002505
-35.074412922891447 10.941736988768696
-35.067483007279549 10.945477418700184
-35.060700792030595 10.949479289238639
-35.054070190199113 10.953727511369094
-35.04759724336747 10.958212164495302
-35.041283739828344 10.962918512824283
-35.035129884419341 10.967831658576058
-35.029133548931028 10.972935755462625
-35.0232907310209 10.978214793928085
-35.017594756913851 10.983651851402236
-35.012035363428843 10.989228394690326
-35.006598723187473 10.994924590874509
-35.001266613888447 11.000718673419376
-34.996024613380875 11.006594333624863
-34.990861980442688 11.012539791729875
-34.985759240560562 11.01853668569815
-34.980701860880075 11.024571851091233
-34.975664964277051 11.030624107275987
-34.970637286562528 11.036684028676412
-34.965583604780413 11.042722308413753
-34.960481738286035 11.048719984159259
-34.95530794556867 11.054655806676578
-34.950039027093872 11.060507467127868
-34.944652212359422 11.066250926790481
-34.9391258545906 11.071860427505325
-34.933448227757793 11.077316984299545
-34.927601677357657 11.082592392979958
-34.921571325446131 11.087656958980821
-34.91534494807582 11.092478813717953
-34.908914907427722 11.097025883773371
-34.902277862701325 11.101265478231374
-34.895435140275303 11.105164822626236
-34.88839299242742 11.108691715555166
-34.881162709435387 11.111815286650957
-34.873760568385656 11.114506861085028
-34.86620757059405 11.116740850347535
-34.858532039909541 11.118509021590956
-34.850761080108455 11.119794966440134
-34.842924295900403 11.120586859389459
-34.835052951601639 11.120877684856058
-34.827179108206309 11.120665167913369
-34.819334818785833 11.119951555829488
-34.811551416680089 11.118743259986481
-34.803858926757279 11.117050376348722
-34.796285609163178 11.114886161174251
-34.788857650759127 11.112266437233258
-34.781598944919281 11.109209124411471
-34.774531127497937 11.105733446737824
-34.767673597367327 11.10185955130882
-34.761043645069279 11.097608084940118
-34.754656625035821 11.092999860211261
-34.748526152781146 11.088055600024544
-34.74266426784088 11.08279580036618
-34.737081586973495 11.077240636450066
-34.731787411026922 11.071409932121172
-34.726789798791856 11.065323154711413
-34.722110991507087 11.058988025513161
-34.717757984321452 11.052424711019878
-34.713735924789241 11.045653437798213
-34.71006644495435 11.03868511346846
-34.706732070103008 11.031550621332601
-34.703713847315385 11.024276933565741
-34.700989811536743 11.016888183553567
-34.698535024145059 11.009405784444874
-34.696321601487838 11.001848558732901
-34.69432153112313 10.994232164553265
-34.692503371534556 10.986570377768357
-34.690838036862075 10.978873995534313
-34.689296414637475 10.971151951890668
-34.687856152908708 10.96341043561185
-34.686504338605182 10.955653059825387
-34.685236573418294 10.947881577516821
-34.684061392078462 10.9400956219972
-34.683002212370425 10.932293093228404
-34.682095689500102 10.924471398051855
-34.681386506407556 10.91662937196122
-34.680935287693693 10.908768294057445
-34.680799762908784 10.900895443854926
-34.681059044575193 10.893025691842167
-34.681176493180935 10.885152513335791
-34.681043555985767 10.877279515784871
-34.680701610114433 10.869412854907678

        </DataArray>
        <DataArray type="Float32" Name="u" NumberOfComponents="1">
          0 0.007874015748031496 0.015748031496062992 0.023622047244094488 0.031496062992125984 0.03937007874015748 0.047244094488188976 0.055118110236220472 0.062992125984251968 0.070866141732283464 0.07874015748031496 0.086614173228346455 0.094488188976377951 0.10236220472440945 0.11023622047244094 0.11811023622047244 0.12598425196850394 0.13385826771653545 0.14173228346456693 0.14960629921259844 0.15748031496062992 0.16535433070866143 0.17322834645669291 0.18110236220472442 0.1889763779527559 0.19685039370078741 0.20472440944881889 0.2125984251968504 0.22047244094488189 0.2283464566929134 0.23622047244094488 0.24409448818897639 0.25196850393700787 0.25984251968503935 0.26771653543307089 0.27559055118110237 0.28346456692913385 0.29133858267716534 0.29921259842519687 0.30708661417322836 0.31496062992125984 0.32283464566929132 0.33070866141732286 0.33858267716535434 0.34645669291338582 0.3543307086614173 0.36220472440944884 0.37007874015748032 0.37795275590551181 0.38582677165354329 0.39370078740157483 0.40157480314960631 0.40944881889763779 0.41732283464566927 0.42519685039370081 0.43307086614173229 0.44094488188976377 0.44881889763779526 0.45669291338582679 0.46456692913385828 0.47244094488188976 0.48031496062992124 0.48818897637795278 0.49606299212598426 0.50393700787401574 0.51181102362204722 0.51968503937007871 0.52755905511811019 0.53543307086614178 0.54330708661417326 0.55118110236220474 0.55905511811023623 0.56692913385826771 0.57480314960629919 0.58267716535433067 0.59055118110236215 0.59842519685039375 0.60629921259842523 0.61417322834645671 0.62204724409448819 0.62992125984251968 0.63779527559055116 0.64566929133858264 0.65354330708661412 0.66141732283464572 0.6692913385826772 0.67716535433070868 0.68503937007874016 0.69291338582677164 0.70078740157480313 0.70866141732283461 0.71653543307086609 0.72440944881889768 0.73228346456692917 0.74015748031496065 0.74803149606299213 0.75590551181102361 0.76377952755905509 0.77165354330708658 0.77952755905511806 0.78740157480314965 0.79527559055118113 0.80314960629921262 0.8110236220472441 0.81889763779527558 0.82677165354330706 0.83464566929133854 0.84251968503937003 0.85039370078740162 0.8582677165354331 0.86614173228346458 0.87401574803149606 0.88188976377952755 0.88976377952755903 0.89763779527559051 0.90551181102362199 0.91338582677165359 0.92125984251968507 0.92913385826771655 0.93700787401574803 0.94488188976377951 0.952755905511811 0.96062992125984248 0.96850393700787396 0.97637795275590555 0.98425196850393704 0.99212598425196852 1
        </DataArray>
      </PointData>
      <CellData Scalars="P">
        <DataArray type="Float32" Name="P" NumberOfComponents="1">
          0.024373087489998804 0.062315201655083141 0.10097466780100246 0.15806869828602538 0.23609202643993527 0.3384597496611122 0.46552090594982226 0.61591686469016171 0.78823407577030991 0.98250276232763223 1.214162988449967 1.4582806997154016 1.7005535027753904 1.9291151251508938 2.1440640581600077 2.3638560093679559 2.5615102595943444 2.7295382852841774 2.8907158752115114 3.0112038515987796 3.0962543282197124 3.1765371430940679 3.2751681507459636 3.4123876854488793 3.5968544188105764 3.8351180616107712 4.1212971987910612 4.4520122833057956 4.812884057929625 5.196515587664198 5.5861030523590758 5.9759886026604097 6.3526101346832125 6.7164354055456981 7.0635359441388523 7.3904024640149686 7.6906933832480924 7.9734108122555387 8.2458095550688224 8.5138954526971897 8.7813944232403163 9.0660523340158683 9.3791970879171362 9.7229738436913902 10.112232198606252 10.545586746393967 11.034725813702345 11.565957725194849 12.128291085961852 12.72106400675672 13.305369353315005 13.851213813382701 14.327142465588246 14.708167484200496 14.974487508339175 15.117195844820932 15.145362555424063 15.087972330304121 14.977479949371064 14.83353292712483 14.703343973915688 14.597187412440773 14.587305092839172 14.633096026072446 14.906134355809717 15.361446221405773 16.034243497880741 16.937366399720506 18.075668061759277 19.437928073390097 20.920906585145861 22.577676865632444 24.380668405327921 26.300350765549695 28.282680740732957 30.272041457843969 32.205105022215363 34.0118183279641 35.616902764355459 36.941911809375036 37.908488580922011 38.431197245769198 38.529923881361434 38.210628666722705 37.492162844976129 36.405176709120418 34.990070961218827 33.294377570577879 31.369783691838371 29.269236907829054 27.044079672470826 24.74232205259317 22.405240741780126 20.067331415373793 17.754876023223581 15.48563578514575 13.268957171801178 11.106663037546456 8.9942401817343551 6.9230902830711267 4.8838681935511872 2.7670238022984845 0.62016262384947307 -1.5809699442682308 -3.8192637931006774 -5.9650398941344491 -8.0381609810495771 -10.043241685338471 -11.965722844574362 -13.763352747184827 -15.388958785936477 -16.754685856644638 -17.818194293259229 -18.538419618937144 -18.947414333481269 -19.093999263663466 -18.993330790512847 -18.58210676838878 -17.647731991890598 -15.850682429158878 -12.882646961165634 -8.4300121970803694 -2.8627022754518596 3.2672931841808395 1.7476471969389951 0.37273625064263882 -0.02554311219429661
        </DataArray>
      </CellData>
      <Points>
        <DataArray type="Float32" NumberOfComponents="3" format="ascii">
          -35.301828419334456 11.121824781553432 0
          -35.300766557015294 11.114022659259618 0
          -35.299756139475178 11.106213730363153 0
          -35.298776514272369 11.098400889957595 0
          -35.297794756762976 11.090588315943318 0
          -35.296787432220796 11.082778982322788 0
          -35.295730243302778 11.074976212944255 0
          -35.294598254575192 11.067183898088809 0
          -35.293366056474078 11.05940673717121 0
          -35.292007805209664 11.051650516811952 0
          -35.290497468887565 11.043922370716141 0
          -35.288796125164495 11.036233892221219 0
          -35.286877135256866 11.028596679557189 0
          -35.284714371964213 11.021024715682254 0
          -35.282283614346227 11.013534279468248 0
          -35.279560371160613 11.006144920698333 0
          -35.276507132639978 10.998885416104189 0
          -35.273102361361239 10.991783674976814 0
          -35.269328301358819 10.984870732428464 0
          -35.265152504885272 10.978192338559857 0
          -35.260564429072225 10.971789646517697 0
          -35.255558631931279 10.965708092957026 0
          -35.250163350635248 10.959969397550191 0
          -35.244408761497183 10.954591220966021 0
          -35.238323932256826 10.94958988197097 0
          -35.231939087540837 10.94497784950919 0
          -35.225282853017319 10.94076711394543 0
          -35.218384848480653 10.936965527876593 0
          -35.211272916321846 10.9335811778343 0
          -35.203975572875656 10.930617879028091 0
          -35.196519629488868 10.928080104537248 0
          -35.188932245912959 10.925967743796097 0
          -35.181238941202899 10.924281735766545 0
          -35.173465138228089 10.923018147934723 0
          -35.165634684127319 10.922174482380351 0
          -35.157770610726466 10.921746409020912 0
          -35.14989497242005 10.921728390240576 0
          -35.142028621790317 10.922109971790483 0
          -35.13419106501042 10.922882521878797 0
          -35.126400604236721 10.924036594216181 0
          -35.118674226054431 10.925561471418503 0
          -35.11102671317591 10.927442078728015 0
          -35.103472192151521 10.929666780204792 0
          -35.096023616112987 10.932223678912081 0
          -35.088691165276082 10.935096496251374 0
          -35.081485131616773 10.938272954002505 0
          -35.074412922891447 10.941736988768696 0
          -35.067483007279549 10.945477418700184 0
          -35.060700792030595 10.949479289238639 0
          -35.054070190199113 10.953727511369094 0
          -35.04759724336747 10.958212164495302 0
          -35.041283739828344 10.962918512824283 0
          -35.035129884419341 10.967831658576058 0
          -35.029133548931028 10.972935755462625 0
          -35.0232907310209 10.978214793928085 0
          -35.017594756913851 10.983651851402236 0
          -35.012035363428843 10.989228394690326 0
          -35.006598723187473 10.994924590874509 0
          -35.001266613888447 11.000718673419376 0
          -34.996024613380875 11.006594333624863 0
          -34.990861980442688 11.012539791729875 0
          -34.985759240560562 11.01853668569815 0
          -34.980701860880075 11.024571851091233 0
          -34.975664964277051 11.030624107275987 0
          -34.970637286562528 11.036684028676412 0
          -34.965583604780413 11.042722308413753 0
          -34.960481738286035 11.048719984159259 0
          -34.95530794556867 11.054655806676578 0
          -34.950039027093872 11.060507467127868 0
          -34.944652212359422 11.066250926790481 0
          -34.9391258545906 11.071860427505325 0
          -34.933448227757793 11.077316984299545 0
          -34.927601677357657 11.082592392979958 0
          -34.921571325446131 11.087656958980821 0
          -34.91534494807582 11.092478813717953 0
          -34.908914907427722 11.097025883773371 0
          -34.902277862701325 11.101265478231374 0
          -34.895435140275303 11.105164822626236 0
          -34.88839299242742 11.108691715555166 0
          -34.881162709435387 11.111815286650957 0
          -34.873760568385656 11.114506861085028 0
          -34.86620757059405 11.116740850347535 0
          -34.858532039909541 11.118509021590956 0
          -34.850761080108455 11.119794966440134 0
          -34.842924295900403 11.120586859389459 0
          -34.835052951601639 11.120877684856058 0
          -34.827179108206309 11.120665167913369 0
          -34.819334818785833 11.119951555829488 0
          -34.811551416680089 11.118743259986481 0
          -34.803858926757279 11.117050376348722 0
          -34.796285609163178 11.114886161174251 0
          -34.788857650759127 11.112266437233258 0
          -34.781598944919281 11.109209124411471 0
          -34.774531127497937 11.105733446737824 0
          -34.767673597367327 11.10185955130882 0
          -34.761043645069279 11.097608084940118 0
          -34.754656625035821 11.092999860211261 0
          -34.748526152781146 11.088055600024544 0
          -34.74266426784088 11.08279580036618 0
          -34.737081586973495 11.077240636450066 0
          -34.731787411026922 11.071409932121172 0
          -34.726789798791856 11.065323154711413 0
          -34.722110991507087 11.058988025513161 0
          -34.717757984321452 11.052424711019878 0
          -34.713735924789241 11.045653437798213 0
          -34.71006644495435 11.03868511346846 0
          -34.706732070103008 11.031550621332601 0
          -34.703713847315385 11.024276933565741 0
          -34.700989811536743 11.016888183553567 0
          -34.698535024145059 11.009405784444874 0
          -34.696321601487838 11.001848558732901 0
          -34.69432153112313 10.994232164553265 0
          -34.692503371534556 10.986570377768357 0
          -34.690838036862075 10.978873995534313 0
          -34.689296414637475 10.971151951890668 0
          -34.687856152908708 10.96341043561185 0
          -34.686504338605182 10.955653059825387 0
          -34.685236573418294 10.947881577516821 0
          -34.684061392078462 10.9400956219972 0
          -34.683002212370425 10.932293093228404 0
          -34.682095689500102 10.924471398051855 0
          -34.681386506407556 10.91662937196122 0
          -34.680935287693693 10.908768294057445 0
          -34.680799762908784 10.900895443854926 0
          -34.681059044575193 10.893025691842167 0
          -34.681176493180935 10.885152513335791 0
          -34.681043555985767 10.877279515784871 0
          -34.680701610114433 10.869412854907678 0
        </DataArray>
      </Points>
      <Cells>
        <DataArray type="Int32" Name="connectivity" format="ascii">
          0 1 1 2 2 3 3 4 4 5 5 6 6 7 7 8 8 9 9 10 10 11 11 12 12 13 13 14 14 15 15 16 16 17 17 18 18 19 19 20 20 21 21 22 22 23 23 24 24 25 25 26 26 27 27 28 28 29 29 30 30 31 31 32 32 33 33 34 34 35 35 36 36 37 37 38 38 39 39 40 40 41 41 42 42 43 43 44 44 45 45 46 46 47 47 48 48 49 49 50 50 51 51 52 52 53 53 54 54 55 55 56 56 57 57 58 58 59 59 60 60 61 61 62 62 63 63 64 64 65 65 66 66 67 67 68 68 69 69 70 70 71 71 72 72 73 73 74 74 75 75 76 76 77 77 78 78 79 79 80 80 81 81 82 82 83 83 84 84 85 85 86 86 87 87 88 88 89 89 90 90 91 91 92 92 93 93 94 94 95 95 96 96 97 97 98 98 99 99 100 100 101 101 102 102 103 103 104 104 105 105 106 106 107 107 108 108 109 109 110 110 111 111 112 112 113 113 114 114 115 115 116 116 117 117 118 118 119 119 120 120 121 121 122 122 123 123 124 124 125 125 126 126 127 
        </DataArray>
        <DataArray type="Int32" Name="offsets" format="ascii">
          2 4 6 8 10 12 14 16 18 20 22 24 26 28 30 32 34 36 38 40 42 44 46 48 50 52 54 56 58 60 62 64 66 68 70 72 74 76 78 80 82 84 86 88 90 92 94 96 98 100 102 104 106 108 110 112 114 116 118 120 122 124 126 128 130 132 134 136 138 140 142 144 146 148 150 152 154 156 158 160 162 164 166 168 170 172 174 176 178 180 182 184 186 188 190 192 194 196 198 200 202 204 206 208 210 212 214 216 218 220 222 224 226 228 230 232 234 236 238 240 242 244 246 248 250 252 254 
        </DataArray>
        <DataArray type="Int32" Name="types" format="ascii">
          3 3 3 3 3 3 3 3 3 3 3 3 3 3 3 3 3 3 3 3 3 3 3 3 3 3 3 3 3 3 3 3 3 3 3 3 3 3 3 3 3 3 3 3 3 3 3 3 3 3 3 3 3 3 3 3 3 3 3 3 3 3 3 3 3 3 3 3 3 3 3 3 3 3 3 3 3 3 3 3 3 3 3 3 3 3 3 3 3 3 3 3 3 3 3 3 3 3 3 3 3 3 3 3 3 3 3 3 3 3 3 3 3 3 3 3 3 3 3 3 3 3 3 3 3 3 3         </DataArray>
      </Cells>
    </Piece>
  </UnstructuredGrid>
</VTKFile>
<!-- DATA


-->
