<?xml version="1.0"?>
<VTKFile type="UnstructuredGrid" version="0.1" byte_order="LittleEndian">
  <UnstructuredGrid>
    <Piece NumberOfPoints="128" NumberOfCells="127">
      <PointData Scalars="u">
        <DataArray type="Float32" Name="Y" NumberOfComponents="2">

0 0
0.05358050402287344 0.062296396417925302
0.061152345473301707 0.092843993007122788
0.080833419978133259 0.12402952292179645
0.10156877007071402 0.15344363579129969
0.13674694861913247 0.18747735118408387
0.16195210117979283 0.22015519525536295
0.16509689250208831 0.24672029823650421
0.17166663593683218 0.2734253549640227
0.18181532596660752 0.29959374599880467
0.19430453084671681 0.32425547879073136
0.21072294916481729 0.34587904698783611
0.22961674145905042 0.36258984096688285
0.24979910061332103 0.37305038517768396
0.27028083724591329 0.37649461878010998
0.28867146829411883 0.37324428157527989
0.30594357575622738 0.36262219148543334
0.31986154656862209 0.34501077233298688
0.32865135722162303 0.32172733168128725
0.33342417052979528 0.29279305124443616
0.33186844958855055 0.26023561643516496
0.32559502164657356 0.2239158761280283
0.31254362318429157 0.18653617376258066
0.29511155274049466 0.14769934169977528
0.2718156211262488 0.11050285327895551
0.24555655654366823 0.074230085911044658
0.21551422798126782 0.042070273981929418
0.18488750944503812 0.012735696069848597
0.15323276157246149 -0.01078316577190294
0.12358605902897885 -0.030660174665053799
0.096043366206907246 -0.045622539066468182
0.07172983302849853 -0.054362522820704917
0.052909029020706329 -0.059536270127556495
0.039149745877909835 -0.060854016919705392
0.03078707060962909 -0.059082619274012635
0.028188438533590609 -0.054565645205980173
0.03191410216784716 -0.047915566847771637
0.042344120838111184 -0.039704281981576203
0.059648560391222162 -0.030604089383695483
0.083779756006961789 -0.020925681588342813
0.1145699919116076 -0.011287175865621691
0.15146642728299572 -0.0022325441651956861
0.19368616076019221 0.006104914121267303
0.24034482520977196 0.013296588933729096
0.29044611447684054 0.019452576843280046
0.34308321569636019 0.024436896504631534
0.39755305742461533 0.028582051370579328
0.4535830529347617 0.032025443924876745
0.51154130001161957 0.035186802094601843
0.57289329057842775 0.038587797110645111
0.64012761852626221 0.04276832899422859
0.71690192779707629 0.048650760573949681
0.80526864690948208 0.057656384346744367
0.90612092756999141 0.070375246254953949
1.0215363783906146 0.088408680190793704
1.1549729211633464 0.11299757424219571
1.3066446397141278 0.15003591568594948
1.4737453492133816 0.20077176647195902
1.6522105825943874 0.26780058976418697
1.8358735255049266 0.35429016488947879
2.0156042803016887 0.46193143918488133
2.1774253500555707 0.59309109282922512
2.309805061926498 0.73921940963987198
2.4044419876601486 0.89403545637759296
2.4573685020987801 1.0496974452753205
2.4585158768159001 1.2070040990818325
2.4066546450076314 1.3486067934405106
2.3017689695887849 1.4634440524310484
2.1478060331174489 1.5412469087865692
1.9523404552220847 1.5733528881013734
1.7254896774450845 1.5538046456832368
1.4791031664633596 1.4795226149915264
1.2256099579635362 1.3504602549400242
0.97704724522216468 1.1692621534660563
0.74491178346507425 0.94028640900391736
0.53666499920202138 0.66986296041891391
0.35296014173144119 0.3662574304630542
0.21545564727393224 0.034892538913430575
0.12973690105041011 -0.30667661974405908
0.065128667613078797 -0.63252889170835425
0.037974203978494887 -0.92349049265447725
0.050258748690744148 -1.1677484878051403
0.092435645074719477 -1.3610651244051415
0.15525187304104651 -1.506246533348792
0.23107960161609845 -1.6104390700053057
0.3154435267249438 -1.682651190196464
0.40347762160012529 -1.7328599053173448
0.49421875275545551 -1.7703595265479197
0.58761400273834563 -1.8025700249683321
0.68445095743015738 -1.8347089200894469
0.78585287909217005 -1.8698564084651779
0.89285576595827576 -1.9092762746192891
1.0061885184905739 -1.952850782373313
1.1261496625717073 -1.9995864020662826
1.2526492879577347 -2.0481179083184551
1.3853702262295 -2.0971750741463944
1.5240292739945247 -2.1459853379980767
1.6687011119280484 -2.1946052016845572
1.8191568347425471 -2.2449345662282667
1.9778553247119701 -2.2979596077210278
2.1468335265091398 -2.3562998528171128
2.3297889767329614 -2.4239271191561342
2.5312006465255794 -2.5070295173472408
2.7580940015882165 -2.6110504047581333
3.0174730192045707 -2.7424944079702396
3.3157768265653194 -2.9099059076671665
3.6595224439841854 -3.1204505807806027
4.0514043519833312 -3.3823122413531621
4.4904405850696847 -3.7021530312785895
4.9696931054360904 -4.0848349477955264
5.4732808618953515 -4.5353891770522212
5.9779749707014176 -5.0518976089520962
6.4523881377743493 -5.6253404755640402
6.8556175404840438 -6.2404882203359024
7.145226395464527 -6.8650089158666265
7.280372252648692 -7.4516884032856963
7.2276366345872249 -7.9389812679258975
6.9714401779678488 -8.2524557323430567
6.5136895133248673 -8.3183410639978064
5.8797208982100546 -8.0717588639793352
5.1088274768945068 -7.4773981080758993
4.2443400781440328 -6.5434067700567349
3.3324565865654794 -5.3276939016840501
2.4199962583872847 -3.9415200621866218
1.5326783864369342 -2.5490851917903772
0.76341967367940344 -1.2969959115254652
0.18770331278059366 -0.39173005863518701
0 0

        </DataArray>
        <DataArray type="Float32" Name="W" NumberOfComponents="2">

-41.817504661825886 13.395603752886448
-41.810602729142431 13.399395469661359
-41.80356209564161 13.402923517462632
-41.796380666400054 13.406156044006433
-41.789052766046424 13.409042111524991
-41.781585361642037 13.411546421273446
-41.773984242653761 13.4136113394406
-41.766268712529524 13.41519589528011
-41.758469981700671 13.416300075682232
-41.750618442866397 13.416926036008121
-41.742743516402413 13.417077729512739
-41.734873466441357 13.416763524166944
-41.727035182099961 13.415991101359767
-41.719254343665071 13.414769284900908
-41.711555358527384 13.41310829698371
-41.703961435279638 13.411019137736423
-41.696493591540325 13.408516622075361
-41.689172292427521 13.405613364883999
-41.682016739602247 13.402322854313164
-41.675043601719707 13.398661731389419
-41.668269430500111 13.394644497239678
-41.66170786083724 13.390288758864987
-41.65537303220637 13.385609475084873
-41.649275352974449 13.380625185732184
-41.643426355045406 13.375351369158432
-41.637833236838802 13.369807001691502
-41.632504766536506 13.364007911347814
-41.627444736554864 13.357973246742119
-41.622658950004251 13.351718939581012
-41.618147480070846 13.345264038413827
-41.613912969400523 13.338624232665556
-41.609956183222053 13.331815347053947
-41.606271930284123 13.324855296356859
-41.602857499737993 13.317759056356476
-41.599708684540659 13.310541103634913
-41.596820234249456 13.303215146707062
-41.594184995023639 13.2957944185382
-41.591794312218546 13.288291404176359
-41.589638162283073 13.280717732565785
-41.587705704965174 13.273083991990701
-41.585984202299578 13.265400000208823
-41.584459720957817 13.257674575016303
-41.58311779041049 13.249915423556704
-41.581942192708063 13.242129397886229
-41.580916478924806 13.234322271945102
-41.580022566691277 13.226499013004183
-41.579242390660433 13.218663642113942
-41.578556323700496 13.210819511054284
-41.577944917478611 13.202969239030157
-41.577388053417934 13.195114930400251
-41.576863846411158 13.187258383252155
-41.576350447656388 13.179401117040891
-41.575814006816572 13.171545368640171
-41.57522987421234 13.163692982458478
-41.574572169915903 13.155846355959959
-41.573814716235674 13.148008648004129
-41.572916018565209 13.140185770608696
-41.571843717864652 13.13238466245619
-41.570565444088928 13.124614491170467
-41.569046414566628 13.116887597001783
-41.567251157195365 13.109219967917605
-41.565143026103314 13.101632167704462
-41.562701278175361 13.094144817937124
-41.559909492267536 13.086780570441862
-41.556752820256271 13.079564944244328
-41.553207380192482 13.072531932313835
-41.549267291581174 13.065711932014986
-41.544931713427488 13.059136037216268
-41.540205041807106 13.052835190815598
-41.535096959451053 13.046839233833266
-41.529621825620545 13.041176351018066
-41.523798275463442 13.035872359730124
-41.517648531190375 13.030950280374062
-41.511197675135222 13.026430065444316
-41.504472894064527 13.022328541264748
-41.497501817314067 13.018661339735166
-41.490314119575991 13.015439482937884
-41.482946918809269 13.012652572361603
-41.475428012031401 13.010305622050669
-41.467784679636097 13.008402467829661
-41.460044066830669 13.006946835438372
-41.452234917526532 13.005922963479978
-41.444382539585725 13.005316387164582
-41.436509499085162 13.005114382411037
-41.428636282435328 13.005305885630342
-41.42078182634075 13.005881165448589
-41.412964185774257 13.006833790621721
-41.40520038237208 13.008155187262886
-41.397506523685081 13.009836563724022
-41.389897758671466 13.011868524077643
-41.382388172921679 13.014240829292607
-41.374990668348303 13.016942312599012
-41.367716833061344 13.019960857055846
-41.360576858101446 13.023283520569885
-41.353579487308139 13.02689669695371
-41.346732003767151 13.03078629892844
-41.340040240874238 13.034937930884707
-41.33350860373622 13.039337032317578
-41.327140071883548 13.043968962028323
-41.320934272562951 13.048816598770781
-41.31489099522566 13.053865249593418
-41.309008378363835 13.059100080463736
-41.303282682749135 13.064505969284452
-41.297705809477144 13.070065136567635
-41.29226901336132 13.07576125925357
-41.286960492782555 13.081577012784253
-41.281762191895361 13.087491401326018
-41.276654601355276 13.093484226815072
-41.271611064386285 13.099531001854153
-41.266603442554171 13.105607516520026
-41.261599743811232 13.11168724723276
-41.256561819820213 13.117738656804281
-41.251456082846985 13.123732995542861
-41.246245881061043 13.129636821522217
-41.240897330607275 13.135415695992082
-41.235385096744658 13.141038769902238
-41.229688923674516 13.146475576807498
-41.223801717995151 13.151705098332766
-41.217725636775306 13.156714131607339
-41.21147521844911 13.161504101437496
-41.205076837430795 13.166094842838131
-41.198562179282526 13.170519363116531
-41.191970361801211 13.174828463754315
-41.185338075923255 13.179075427663898
-41.178666546912652 13.183260170535783
-41.172009590540512 13.187467714501878
-41.165425868565755 13.191788582310632
-41.158965108055341 13.196291424116733

        </DataArray>
        <DataArray type="Float32" Name="u" NumberOfComponents="1">
          0 0.007874015748031496 0.015748031496062992 0.023622047244094488 0.031496062992125984 0.03937007874015748 0.047244094488188976 0.055118110236220472 0.062992125984251968 0.070866141732283464 0.07874015748031496 0.086614173228346455 0.094488188976377951 0.10236220472440945 0.11023622047244094 0.11811023622047244 0.12598425196850394 0.13385826771653545 0.14173228346456693 0.14960629921259844 0.15748031496062992 0.16535433070866143 0.17322834645669291 0.18110236220472442 0.1889763779527559 0.19685039370078741 0.20472440944881889 0.2125984251968504 0.22047244094488189 0.2283464566929134 0.23622047244094488 0.24409448818897639 0.25196850393700787 0.25984251968503935 0.26771653543307089 0.27559055118110237 0.28346456692913385 0.29133858267716534 0.29921259842519687 0.30708661417322836 0.31496062992125984 0.32283464566929132 0.33070866141732286 0.33858267716535434 0.34645669291338582 0.3543307086614173 0.36220472440944884 0.37007874015748032 0.37795275590551181 0.38582677165354329 0.39370078740157483 0.40157480314960631 0.40944881889763779 0.41732283464566927 0.42519685039370081 0.43307086614173229 0.44094488188976377 0.44881889763779526 0.45669291338582679 0.46456692913385828 0.47244094488188976 0.48031496062992124 0.48818897637795278 0.49606299212598426 0.50393700787401574 0.51181102362204722 0.51968503937007871 0.52755905511811019 0.53543307086614178 0.54330708661417326 0.55118110236220474 0.55905511811023623 0.56692913385826771 0.57480314960629919 0.58267716535433067 0.59055118110236215 0.59842519685039375 0.60629921259842523 0.61417322834645671 0.62204724409448819 0.62992125984251968 0.63779527559055116 0.64566929133858264 0.65354330708661412 0.66141732283464572 0.6692913385826772 0.67716535433070868 0.68503937007874016 0.69291338582677164 0.70078740157480313 0.70866141732283461 0.71653543307086609 0.72440944881889768 0.73228346456692917 0.74015748031496065 0.74803149606299213 0.75590551181102361 0.76377952755905509 0.77165354330708658 0.77952755905511806 0.78740157480314965 0.79527559055118113 0.80314960629921262 0.8110236220472441 0.81889763779527558 0.82677165354330706 0.83464566929133854 0.84251968503937003 0.85039370078740162 0.8582677165354331 0.86614173228346458 0.87401574803149606 0.88188976377952755 0.88976377952755903 0.89763779527559051 0.90551181102362199 0.91338582677165359 0.92125984251968507 0.92913385826771655 0.93700787401574803 0.94488188976377951 0.952755905511811 0.96062992125984248 0.96850393700787396 0.97637795275590555 0.98425196850393704 0.99212598425196852 1
        </DataArray>
      </PointData>
      <CellData Scalars="P">
        <DataArray type="Float32" Name="P" NumberOfComponents="1">
          0.025327247451701396 0.13970463947967868 0.30634632150707247 0.54227562117492356 0.81593450574778681 1.1502023513484203 1.4937169598485331 1.8270800190159548 2.1503674605689951 2.4679516984304852 2.7830784486839146 3.1099867325204169 3.4593690448397751 3.837671221675361 4.2481709498063722 4.6865782975166264 5.1600083865659077 5.6673203110856303 6.1994042245555674 6.758568395657309 7.3341086530016346 7.9287245616932678 8.527346033578791 9.1324632325869146 9.726415603105643 10.311272136167561 10.86826654673153 11.400444344570069 11.890546643299714 12.345320731116061 12.758561725816907 13.11739551767238 13.430858976896976 13.701143047653956 13.930127769343684 14.117954230067994 14.265793630176072 14.376000158288736 14.452166481720932 14.497938047207937 14.518549997367858 14.5200548187038 14.508538344016353 14.489993277100096 14.470100426484358 14.453319624753778 14.443797019954303 14.444061322087295 14.456677382616494 14.48607045858056 14.537626764850021 14.637837833093052 14.788406336305083 15.006755923369196 15.313755145137886 15.778650792251931 16.401925314319467 17.20009000300567 18.192026215873319 19.376383150235654 20.728928621700078 22.116615830074529 23.458151946668732 24.698385439618772 25.822385063278436 26.697043148677103 27.249744486931217 27.429285241748918 27.209133266463834 26.588618213215103 25.590051400400267 24.254057065367618 22.633154683579178 20.784563111117407 18.754591067093727 16.591680543756361 14.426334924667151 12.272606589012588 10.226130954579778 8.4693780432990557 7.0785161162495509 6.0575228195577102 5.367717877959441 4.9489812708683312 4.7340753572669474 4.6572812214208872 4.6557706984227183 4.6773720879557592 4.6836888534172108 4.6499153579104586 4.5633482073758334 4.4209758178745542 4.2266616435695914 3.9881605129640119 3.7142913989208175 3.4124733549460826 3.0867493644109958 2.7364041318401018 2.3603696068226228 1.9494660464606908 1.4935548961355885 0.97926556279596033 0.40316087625025154 -0.24395759976494988 -0.95223851565960105 -1.6716090976380376 -2.3566126150189235 -2.8841828539572605 -3.1555733437812155 -3.031881575292096 -2.3359112869292278 -1.0799676120144057 0.773827916960805 3.0717968867747096 5.4493578861255987 7.4916653845463008 8.645648304339641 8.4837203362795464 6.805132342779177 3.8460078134100342 0.21454448633110301 -3.0523681864289336 -5.1847521052488572 -6.8601217402828363 -5.8673526381279908 -2.7508188452044244 -0.025825990775267108
        </DataArray>
      </CellData>
      <Points>
        <DataArray type="Float32" NumberOfComponents="3" format="ascii">
          -41.817504661825886 13.395603752886448 0
          -41.810602729142431 13.399395469661359 0
          -41.80356209564161 13.402923517462632 0
          -41.796380666400054 13.406156044006433 0
          -41.789052766046424 13.409042111524991 0
          -41.781585361642037 13.411546421273446 0
          -41.773984242653761 13.4136113394406 0
          -41.766268712529524 13.41519589528011 0
          -41.758469981700671 13.416300075682232 0
          -41.750618442866397 13.416926036008121 0
          -41.742743516402413 13.417077729512739 0
          -41.734873466441357 13.416763524166944 0
          -41.727035182099961 13.415991101359767 0
          -41.719254343665071 13.414769284900908 0
          -41.711555358527384 13.41310829698371 0
          -41.703961435279638 13.411019137736423 0
          -41.696493591540325 13.408516622075361 0
          -41.689172292427521 13.405613364883999 0
          -41.682016739602247 13.402322854313164 0
          -41.675043601719707 13.398661731389419 0
          -41.668269430500111 13.394644497239678 0
          -41.66170786083724 13.390288758864987 0
          -41.65537303220637 13.385609475084873 0
          -41.649275352974449 13.380625185732184 0
          -41.643426355045406 13.375351369158432 0
          -41.637833236838802 13.369807001691502 0
          -41.632504766536506 13.364007911347814 0
          -41.627444736554864 13.357973246742119 0
          -41.622658950004251 13.351718939581012 0
          -41.618147480070846 13.345264038413827 0
          -41.613912969400523 13.338624232665556 0
          -41.609956183222053 13.331815347053947 0
          -41.606271930284123 13.324855296356859 0
          -41.602857499737993 13.317759056356476 0
          -41.599708684540659 13.310541103634913 0
          -41.596820234249456 13.303215146707062 0
          -41.594184995023639 13.2957944185382 0
          -41.591794312218546 13.288291404176359 0
          -41.589638162283073 13.280717732565785 0
          -41.587705704965174 13.273083991990701 0
          -41.585984202299578 13.265400000208823 0
          -41.584459720957817 13.257674575016303 0
          -41.58311779041049 13.249915423556704 0
          -41.581942192708063 13.242129397886229 0
          -41.580916478924806 13.234322271945102 0
          -41.580022566691277 13.226499013004183 0
          -41.579242390660433 13.218663642113942 0
          -41.578556323700496 13.210819511054284 0
          -41.577944917478611 13.202969239030157 0
          -41.577388053417934 13.195114930400251 0
          -41.576863846411158 13.187258383252155 0
          -41.576350447656388 13.179401117040891 0
          -41.575814006816572 13.171545368640171 0
          -41.57522987421234 13.163692982458478 0
          -41.574572169915903 13.155846355959959 0
          -41.573814716235674 13.148008648004129 0
          -41.572916018565209 13.140185770608696 0
          -41.571843717864652 13.13238466245619 0
          -41.570565444088928 13.124614491170467 0
          -41.569046414566628 13.116887597001783 0
          -41.567251157195365 13.109219967917605 0
          -41.565143026103314 13.101632167704462 0
          -41.562701278175361 13.094144817937124 0
          -41.559909492267536 13.086780570441862 0
          -41.556752820256271 13.079564944244328 0
          -41.553207380192482 13.072531932313835 0
          -41.549267291581174 13.065711932014986 0
          -41.544931713427488 13.059136037216268 0
          -41.540205041807106 13.052835190815598 0
          -41.535096959451053 13.046839233833266 0
          -41.529621825620545 13.041176351018066 0
          -41.523798275463442 13.035872359730124 0
          -41.517648531190375 13.030950280374062 0
          -41.511197675135222 13.026430065444316 0
          -41.504472894064527 13.022328541264748 0
          -41.497501817314067 13.018661339735166 0
          -41.490314119575991 13.015439482937884 0
          -41.482946918809269 13.012652572361603 0
          -41.475428012031401 13.010305622050669 0
          -41.467784679636097 13.008402467829661 0
          -41.460044066830669 13.006946835438372 0
          -41.452234917526532 13.005922963479978 0
          -41.444382539585725 13.005316387164582 0
          -41.436509499085162 13.005114382411037 0
          -41.428636282435328 13.005305885630342 0
          -41.42078182634075 13.005881165448589 0
          -41.412964185774257 13.006833790621721 0
          -41.40520038237208 13.008155187262886 0
          -41.397506523685081 13.009836563724022 0
          -41.389897758671466 13.011868524077643 0
          -41.382388172921679 13.014240829292607 0
          -41.374990668348303 13.016942312599012 0
          -41.367716833061344 13.019960857055846 0
          -41.360576858101446 13.023283520569885 0
          -41.353579487308139 13.02689669695371 0
          -41.346732003767151 13.03078629892844 0
          -41.340040240874238 13.034937930884707 0
          -41.33350860373622 13.039337032317578 0
          -41.327140071883548 13.043968962028323 0
          -41.320934272562951 13.048816598770781 0
          -41.31489099522566 13.053865249593418 0
          -41.309008378363835 13.059100080463736 0
          -41.303282682749135 13.064505969284452 0
          -41.297705809477144 13.070065136567635 0
          -41.29226901336132 13.07576125925357 0
          -41.286960492782555 13.081577012784253 0
          -41.281762191895361 13.087491401326018 0
          -41.276654601355276 13.093484226815072 0
          -41.271611064386285 13.099531001854153 0
          -41.266603442554171 13.105607516520026 0
          -41.261599743811232 13.11168724723276 0
          -41.256561819820213 13.117738656804281 0
          -41.251456082846985 13.123732995542861 0
          -41.246245881061043 13.129636821522217 0
          -41.240897330607275 13.135415695992082 0
          -41.235385096744658 13.141038769902238 0
          -41.229688923674516 13.146475576807498 0
          -41.223801717995151 13.151705098332766 0
          -41.217725636775306 13.156714131607339 0
          -41.21147521844911 13.161504101437496 0
          -41.205076837430795 13.166094842838131 0
          -41.198562179282526 13.170519363116531 0
          -41.191970361801211 13.174828463754315 0
          -41.185338075923255 13.179075427663898 0
          -41.178666546912652 13.183260170535783 0
          -41.172009590540512 13.187467714501878 0
          -41.165425868565755 13.191788582310632 0
          -41.158965108055341 13.196291424116733 0
        </DataArray>
      </Points>
      <Cells>
        <DataArray type="Int32" Name="connectivity" format="ascii">
          0 1 1 2 2 3 3 4 4 5 5 6 6 7 7 8 8 9 9 10 10 11 11 12 12 13 13 14 14 15 15 16 16 17 17 18 18 19 19 20 20 21 21 22 22 23 23 24 24 25 25 26 26 27 27 28 28 29 29 30 30 31 31 32 32 33 33 34 34 35 35 36 36 37 37 38 38 39 39 40 40 41 41 42 42 43 43 44 44 45 45 46 46 47 47 48 48 49 49 50 50 51 51 52 52 53 53 54 54 55 55 56 56 57 57 58 58 59 59 60 60 61 61 62 62 63 63 64 64 65 65 66 66 67 67 68 68 69 69 70 70 71 71 72 72 73 73 74 74 75 75 76 76 77 77 78 78 79 79 80 80 81 81 82 82 83 83 84 84 85 85 86 86 87 87 88 88 89 89 90 90 91 91 92 92 93 93 94 94 95 95 96 96 97 97 98 98 99 99 100 100 101 101 102 102 103 103 104 104 105 105 106 106 107 107 108 108 109 109 110 110 111 111 112 112 113 113 114 114 115 115 116 116 117 117 118 118 119 119 120 120 121 121 122 122 123 123 124 124 125 125 126 126 127 
        </DataArray>
        <DataArray type="Int32" Name="offsets" format="ascii">
          2 4 6 8 10 12 14 16 18 20 22 24 26 28 30 32 34 36 38 40 42 44 46 48 50 52 54 56 58 60 62 64 66 68 70 72 74 76 78 80 82 84 86 88 90 92 94 96 98 100 102 104 106 108 110 112 114 116 118 120 122 124 126 128 130 132 134 136 138 140 142 144 146 148 150 152 154 156 158 160 162 164 166 168 170 172 174 176 178 180 182 184 186 188 190 192 194 196 198 200 202 204 206 208 210 212 214 216 218 220 222 224 226 228 230 232 234 236 238 240 242 244 246 248 250 252 254 
        </DataArray>
        <DataArray type="Int32" Name="types" format="ascii">
          3 3 3 3 3 3 3 3 3 3 3 3 3 3 3 3 3 3 3 3 3 3 3 3 3 3 3 3 3 3 3 3 3 3 3 3 3 3 3 3 3 3 3 3 3 3 3 3 3 3 3 3 3 3 3 3 3 3 3 3 3 3 3 3 3 3 3 3 3 3 3 3 3 3 3 3 3 3 3 3 3 3 3 3 3 3 3 3 3 3 3 3 3 3 3 3 3 3 3 3 3 3 3 3 3 3 3 3 3 3 3 3 3 3 3 3 3 3 3 3 3 3 3 3 3 3 3         </DataArray>
      </Cells>
    </Piece>
  </UnstructuredGrid>
</VTKFile>
<!-- DATA


-->
