<?xml version="1.0"?>
<VTKFile type="UnstructuredGrid" version="0.1" byte_order="LittleEndian">
  <UnstructuredGrid>
    <Piece NumberOfPoints="128" NumberOfCells="127">
      <PointData Scalars="u">
        <DataArray type="Float32" Name="Y" NumberOfComponents="2">

0 0
0.019596457681717999 -0.015863036340027729
0.018963306985672959 -0.010993550421351354
0.016727286374203801 -0.0074694738393147001
0.014412098291602794 -0.0043574141172214743
0.013251658102341862 -0.001203119610231822
0.014123992335183371 0.0021418960363172907
0.017537216747722434 0.0056684354114678107
0.023651057545297467 0.0093207276232808584
0.032318796753046802 0.013066255946524528
0.0431380297304488 0.01692570354100446
0.055503019392557459 0.020968339541880238
0.068655674727536239 0.025280539468542761
0.081735498880564125 0.029916362135460669
0.093830781973400237 0.034839569795046446
0.10403370167932911 0.03986639369200852
0.11150096454920154 0.044617742655225112
0.11551954626959157 0.048488313564374629
0.11557454405141271 0.050638041853226554
0.11141381687203748 0.050008504804556354
0.10310262576541208 0.045363442445229232
0.091061374226292652 0.035348941643707062
0.076080946998037233 0.018565660489441065
0.059312804762940763 -0.0063566003787619476
0.042234292343376563 -0.040692186104288521
0.02659273508966584 -0.085569804528928983
0.014334030936513005 -0.14194627115755146
0.0075220657148538051 -0.21060723534558479
0.0082542807434476846 -0.29219529047549098
0.018576403548873691 -0.38726353805544772
0.040396304774142425 -0.49635132877541832
0.075393783096742051 -0.62007835421423596
0.12492027872241898 -0.75925293733379973
0.1898802846756581 -0.91498946586357577
0.27058458587254713 -1.0888276012635267
0.36656443988396303 -1.2828414803076631
0.47633576127361865 -1.4997201390801354
0.597104228441934 -1.7427906677935667
0.72440779505690567 -2.0159434393129003
0.85170506903004828 -2.3234052408251902
0.96993986191399661 -2.6692938268230879
1.0671473096480952 -3.0568812809671457
1.1282171323166972 -3.4875020617396242
1.1349921532051626 -3.9590771321066049
1.0669437875897505 -4.4643032711590385
0.90270599760252113 -4.9886895713129205
0.62272409010626617 -5.5088119565681639
0.2131317903942222 -5.9913739945703579
-0.32933688948215184 -6.3938364165955477
-0.99206760725946408 -6.6673874157901452
-1.7421333803729662 -6.7627274069590921
-2.3630513344143655 -6.6913166327236375
-2.7347964737257375 -6.5526265058622029
-3.0492367031387073 -6.2980538541235571
-3.2907547098273717 -5.9497129362787051
-3.4488723903289857 -5.5298779337993187
-3.5182479066438717 -5.0599137253116435
-3.4982751382498121 -4.5593132327679839
-3.3924024096039811 -4.0449523953560824
-3.2072949688988532 -3.5306194850617478
-2.9519553298408741 -3.026826951870158
-2.6368924474420279 -2.5408774093331123
-2.2734013786302856 -2.0771330160862815
-1.8729855987737558 -1.6374284189293364
-1.4469288137020877 -1.2215686179155683
-1.0060042187986584 -0.82786084769421775
-0.56029725342729952 -0.45364033091390921
-0.11911233300139755 -0.095760829928442953
0.30906646494937551 0.24896940881803725
0.71658766898854565 0.58341824475066728
1.0966391356332346 0.90983346813823174
1.4432641140974076 1.2296231790762742
1.7513945756112099 1.5432138649305949
2.0169030538619506 1.8499856717904737
2.2366683762260582 2.1482826630527661
2.4086460310401741 2.4354937241368879
2.5319308647041145 2.7081970725848574
2.6067985795778217 2.9623581959618166
2.6347132159371052 3.1935678102029899
2.6182903573042746 3.3973036054384238
2.5612098936571592 3.5691976566139769
2.4680772906794726 3.7052908831470539
2.3442377741814902 3.8022571174354112
2.1955529126420648 3.8575822046793937
2.0281530904631007 3.8696878474368459
1.8481818043569063 3.8379951306086242
1.661548329460808 3.7629281722155015
1.4737041229333332 3.6458634650790662
1.2894556477052164 3.4890346177125728
1.1128225928809297 3.2954049577946236
0.94694630134976709 3.0685216521287262
0.79404914642529678 2.8123646709329373
0.65544207710418401 2.5312023216406683
0.53157486551663402 2.2294625604556004
0.42212186868191248 1.9116262646104036
0.32609531842960165 1.582145505799047
0.24197812477657085 1.245386928560775
0.16786869845941452 0.90559783983537312
0.10163111767021495 0.56689070052566692
0.041044861968106111 0.23324043771467426
-0.01605086654582831 -0.091511629685206652
-0.071622621721352017 -0.40365347637697119
-0.12732203237342393 -0.69960335864584333
-0.18438286417118521 -0.97592078686607586
-0.24353970922173379 -1.2293307629630845
-0.30497216010526368 -1.4567628707069402
-0.36827813120257769 -1.6554049487214875
-0.43247949211408665 -1.8227692050762798
-0.49606225715062713 -1.9567669315443363
-0.55705218060303485 -2.055786645008121
-0.61312475434855929 -2.1187697233305838
-0.66174640312065458 -2.1452775781966329
-0.70034129267542966 -2.135545218902263
-0.726475849860719 -2.0905177018641767
-0.73805108846446521 -2.0118682986977774
-0.73349137536631881 -1.9019999794196705
-0.71191752738237446 -1.7640346039307937
-0.67329220217738961 -1.6017965615742633
-0.61852644646545385 -1.4197989901509969
-0.54953798111061525 -1.2232406722896239
-0.46925431278855489 -1.0180199088297479
-0.38155713596539081 -0.81076795566759485
-0.29116888648684647 -0.60889910658888668
-0.2034880007510376 -0.42066764231873222
-0.12438668175227724 -0.25521441101570796
-0.059993857661449504 -0.12257879340003716
-0.016496159112839415 -0.033646395639812678
0 0

        </DataArray>
        <DataArray type="Float32" Name="W" NumberOfComponents="2">

-2.9637646407012221 1.4010840950826247
-2.9591566489475967 1.394699157883621
-2.9548916180065734 1.38808021830175
-2.9509420480417266 1.3812683470315323
-2.9472736053005333 1.3743010611143402
-2.9438460463028489 1.367212178892695
-2.9406142021868886 1.3600319642685297
-2.9375289889646075 1.3527875409343695
-2.9345384212851857 1.3455035409283516
-2.9315886200927994 1.3382029383501113
-2.9286248161664536 1.3309080085717298
-2.9255923600297025 1.3236413457112453
-2.9224377526360201 1.316426866369804
-2.9191097096901326 1.3092907256710116
-2.9155602652820312 1.3022620727479686
-2.9117459082759556 1.2953735775348654
-2.9076287289582621 1.2886616697210322
-2.9031775358375329 1.2821664446233889
-2.8983688857557297 1.2759312097669713
-2.893187957401119 1.270001669716724
-2.8876291915724677 1.2644247739055212
-2.8816966232284051 1.2592472806816637
-2.8754038415837235 1.2545141176408077
-2.8687735351053636 1.2502666402212743
-2.8618366066102596 1.2465409043760163
-2.8546308768698685 1.2433660724489792
-2.8471994293559253 1.2407630629531565
-2.8395886798528949 1.2387435350774936
-2.8318462787832459 1.2373092693213454
-2.8240189683773269 1.2364519698833623
-2.8161505198348653 1.2361534763826185
-2.80827986756726 1.2363863364613246
-2.8004395402240245 1.2371146607138752
-2.7926544644429385 1.2382951602058381
-2.7849411907561077 1.2398782563825945
-2.7773075655550583 1.2418091539526521
-2.7697528517035361 1.2440287788096474
-2.7622682855610208 1.2464745039293024
-2.754838050812066 1.2490806148147389
-2.7474406490396972 1.2517785008894238
-2.740050651270368 1.2544965989565129
-2.7326408199531556 1.2571601584091212
-2.7251845916627437 1.2596909440990336
-2.7176589005981295 1.2620070395159873
-2.7100472944358658 1.2640229559205911
-2.7023432408027626 1.2656502845149811
-2.6945534412807817 1.2667991362436541
-2.6867008640244978 1.2673805805934768
-2.6788270905619833 1.2673102022960969
-2.6709934766378476 1.2665127293940603
-2.6632805946391747 1.2649274491896896
-2.6557855055642166 1.2625138487601302
-2.6484369347511421 1.2596853764832743
-2.6412579317541049 1.256450632689541
-2.634267992819312 1.2528254027359367
-2.6274820925597919 1.2488312857653754
-2.6209100343107474 1.2444943135516335
-2.6145561189763935 1.2398436257385608
-2.6084191075227561 1.2349102611702196
-2.6024924348637053 1.2297261115099636
-2.5967646232004657 1.2243230663317279
-2.5912198402646758 1.2187323613455039
-2.5858385509462085 1.2129841256594609
-2.5805982176406985 1.2071071113694281
-2.5754740134996599 1.201128579865762
-2.5704395220373093 1.1950743139834834
-2.5654674050715323 1.1889687230139832
-2.5605300280139529 1.1828350079780261
-2.5556000367307523 1.176695356743559
-2.5506508835406581 1.1705711419584721
-2.5456573015926542 1.1644830988942376
-2.5405957272089363 1.1584514648372779
-2.5354446691984576 1.1524960664114459
-2.5301850230750667 1.1466363460323945
-2.5248003269657109 1.1408913234807176
-2.5192769551322436 1.1352794932300929
-2.5136042447424165 1.1298186625469677
-2.5077745520008947 1.1245257393222028
-2.5017832350654103 1.1194164819080104
-2.4956285632823705 1.1145052257151897
-2.4893115550217777 1.1098046028008184
-2.4828357495193489 1.1053252710279597
-2.4762069213270079 1.1010756685759866
-2.469432748892868 1.0970618076956435
-2.4625224511237498 1.093287118814501
-2.4554864072784723 1.0897523526720585
-2.448335776047351 1.0864555444233013
-2.4410821291543963 1.0833920399366734
-2.433737113346794 1.0805545811447241
-2.426312152377808 1.077933444540031
-2.4188181977742276 1.0755166249162662
-2.4112655340661626 1.0732900553082658
-2.4036636409976957 1.071237853765439
-2.3960211122501502 1.0693425880004317
-2.3883456275619186 1.067585549933513
-2.3806439729268081 1.0659470335150902
-2.3729221018460951 1.0644066107591774
-2.3651852293996689 1.062943402477466
-2.3574379501565934 1.0615363416119692
-2.3496843706141561 1.0601644282053031
-2.3419282468814622 1.0588069758426315
-2.3341731186592964 1.0574438498093433
-2.3264224311756578 1.0560556972325894
-2.3186796375945389 1.0546241691459508
-2.310948275515611 1.0531321337973243
-2.303232012523468 1.0515638796975253
-2.2955346573251143 1.0499053059860619
-2.2878601348215946 1.0481440967862525
-2.2802124254630791 1.0462698754503401
-2.2725954713792587 1.044274334061986
-2.2650130539721531 1.0421513333509864
-2.2574686497915009 1.0398969683304036
-2.2499652734471742 1.0375095954910505
-2.2425053179011578 1.0349898182321251
-2.2350904035797603 1.0323404282679791
-2.2277212482306696 1.0295663018845858
-2.2203975692286906 1.0266742509538394
-2.2131180290624397 1.0236728293759951
-2.20588023301636 1.0205720959648286
-2.1986807856541142 1.0173833346301893
-2.1915154097169616 1.0141187320505864
-2.18437912762993 1.0107910119758423
-2.1772665021685382 1.0074130240868218
-2.1701719292522079 1.0039972843071443
-2.1630899726502668 1.0005554630359978
-2.1560157280618908 0.99709781841398992
-2.1489452031133087 0.99363257388008575
-2.1418757009327707 0.99016524326257749

        </DataArray>
        <DataArray type="Float32" Name="u" NumberOfComponents="1">
          0 0.007874015748031496 0.015748031496062992 0.023622047244094488 0.031496062992125984 0.03937007874015748 0.047244094488188976 0.055118110236220472 0.062992125984251968 0.070866141732283464 0.07874015748031496 0.086614173228346455 0.094488188976377951 0.10236220472440945 0.11023622047244094 0.11811023622047244 0.12598425196850394 0.13385826771653545 0.14173228346456693 0.14960629921259844 0.15748031496062992 0.16535433070866143 0.17322834645669291 0.18110236220472442 0.1889763779527559 0.19685039370078741 0.20472440944881889 0.2125984251968504 0.22047244094488189 0.2283464566929134 0.23622047244094488 0.24409448818897639 0.25196850393700787 0.25984251968503935 0.26771653543307089 0.27559055118110237 0.28346456692913385 0.29133858267716534 0.29921259842519687 0.30708661417322836 0.31496062992125984 0.32283464566929132 0.33070866141732286 0.33858267716535434 0.34645669291338582 0.3543307086614173 0.36220472440944884 0.37007874015748032 0.37795275590551181 0.38582677165354329 0.39370078740157483 0.40157480314960631 0.40944881889763779 0.41732283464566927 0.42519685039370081 0.43307086614173229 0.44094488188976377 0.44881889763779526 0.45669291338582679 0.46456692913385828 0.47244094488188976 0.48031496062992124 0.48818897637795278 0.49606299212598426 0.50393700787401574 0.51181102362204722 0.51968503937007871 0.52755905511811019 0.53543307086614178 0.54330708661417326 0.55118110236220474 0.55905511811023623 0.56692913385826771 0.57480314960629919 0.58267716535433067 0.59055118110236215 0.59842519685039375 0.60629921259842523 0.61417322834645671 0.62204724409448819 0.62992125984251968 0.63779527559055116 0.64566929133858264 0.65354330708661412 0.66141732283464572 0.6692913385826772 0.67716535433070868 0.68503937007874016 0.69291338582677164 0.70078740157480313 0.70866141732283461 0.71653543307086609 0.72440944881889768 0.73228346456692917 0.74015748031496065 0.74803149606299213 0.75590551181102361 0.76377952755905509 0.77165354330708658 0.77952755905511806 0.78740157480314965 0.79527559055118113 0.80314960629921262 0.8110236220472441 0.81889763779527558 0.82677165354330706 0.83464566929133854 0.84251968503937003 0.85039370078740162 0.8582677165354331 0.86614173228346458 0.87401574803149606 0.88188976377952755 0.88976377952755903 0.89763779527559051 0.90551181102362199 0.91338582677165359 0.92125984251968507 0.92913385826771655 0.93700787401574803 0.94488188976377951 0.952755905511811 0.96062992125984248 0.96850393700787396 0.97637795275590555 0.98425196850393704 0.99212598425196852 1
        </DataArray>
      </PointData>
      <CellData Scalars="P">
        <DataArray type="Float32" Name="P" NumberOfComponents="1">
          0.0045840169979148625 0.047432965862840341 0.10071755796317031 0.14931346117134145 0.18534500661399736 0.20693087834140256 0.2167086874450484 0.22028693761013329 0.22475149022119442 0.23732543362457076 0.26425100743389696 0.30993362850354689 0.37636331980773918 0.46280871222715508 0.56576296256411673 0.67910861460308625 0.79445891245318279 0.90162614401197871 0.9891636870481505 1.0449284925792826 1.0566158415800684 1.012229029426212 0.90046297537553044 0.71100128148607777 0.43474850442546914 0.064040124650160415 -0.40711148359760585 -0.98266870081556101 -1.6640529461050715 -2.4494078629992071 -3.3326079531460588 -4.3020070242842863 -5.3389548146635422 -6.4161498933601733 -7.4959435094880797 -8.528765228324465 -9.4519108018827538 -10.189019266378068 -10.650670265340111 -10.736647709640701 -10.340523547943855 -9.3572785960819793 -7.694634756553973 -5.2885371209777867 -2.1226900868950596 1.7488772446269742 6.1785963088215805 10.905540548709487 15.544669238050858 19.591733106686068 22.449845394848136 22.991737686388195 22.730637688870345 21.76619349409405 20.221355034923956 18.231807757999423 15.936805911267962 13.471542831778441 10.961163574381462 8.5164316100605006 6.2309539362999686 4.1797789640245684 2.4191246038652316 0.98697331729332149 -0.095718427063430811 -0.82341594838604559 -1.2041819745410969 -1.2577583422604039 -1.0136352639852244 -0.50915286350838929 0.21234686241884401 1.1033152837995412 2.1137430133182482 3.1928573848616675 4.2907640642512304 5.3600135704753207 6.3570611741297984 7.2435783644014675 7.9875680157360618 8.5642350403427709 8.9565703175960358 9.1556177095635967 9.1604107517010167 8.9775851731473537 8.6206933684307518 8.1092649141635036 7.4676711605908652 6.7238604506279245 5.9080330741204214 5.0513219313392064 4.1845370376349811 3.3370209027125171 2.5356491138296118 1.803997731047285 1.1616876885765488 0.62390721477549516 0.20110681671051717 -0.10114232462190176 -0.28213694853190935 -0.34588707949004144 -0.30082622511145357 -0.15939249896972482 0.062514622758790106 0.34619724281614339 0.67093512028412372 1.0148641241293246 1.35593972087323 1.6729594317547443 1.9466079271684682 2.1604775465024511 2.3020067632468209 2.3632708883259803 2.3415546421549376 2.2396366238153322 2.0657225223938136 1.8329782956635901 1.5586373735690291 1.2626878384313538 0.96618677573872302 0.68929938544913727 0.44921901063388348 0.25818864752675214 0.12191031827059003 0.038688534158285805 -0.00030304349718255957 -0.0092314358395691846 -0.0039283712744726937
        </DataArray>
      </CellData>
      <Points>
        <DataArray type="Float32" NumberOfComponents="3" format="ascii">
          -2.9637646407012221 1.4010840950826247 0
          -2.9591566489475967 1.394699157883621 0
          -2.9548916180065734 1.38808021830175 0
          -2.9509420480417266 1.3812683470315323 0
          -2.9472736053005333 1.3743010611143402 0
          -2.9438460463028489 1.367212178892695 0
          -2.9406142021868886 1.3600319642685297 0
          -2.9375289889646075 1.3527875409343695 0
          -2.9345384212851857 1.3455035409283516 0
          -2.9315886200927994 1.3382029383501113 0
          -2.9286248161664536 1.3309080085717298 0
          -2.9255923600297025 1.3236413457112453 0
          -2.9224377526360201 1.316426866369804 0
          -2.9191097096901326 1.3092907256710116 0
          -2.9155602652820312 1.3022620727479686 0
          -2.9117459082759556 1.2953735775348654 0
          -2.9076287289582621 1.2886616697210322 0
          -2.9031775358375329 1.2821664446233889 0
          -2.8983688857557297 1.2759312097669713 0
          -2.893187957401119 1.270001669716724 0
          -2.8876291915724677 1.2644247739055212 0
          -2.8816966232284051 1.2592472806816637 0
          -2.8754038415837235 1.2545141176408077 0
          -2.8687735351053636 1.2502666402212743 0
          -2.8618366066102596 1.2465409043760163 0
          -2.8546308768698685 1.2433660724489792 0
          -2.8471994293559253 1.2407630629531565 0
          -2.8395886798528949 1.2387435350774936 0
          -2.8318462787832459 1.2373092693213454 0
          -2.8240189683773269 1.2364519698833623 0
          -2.8161505198348653 1.2361534763826185 0
          -2.80827986756726 1.2363863364613246 0
          -2.8004395402240245 1.2371146607138752 0
          -2.7926544644429385 1.2382951602058381 0
          -2.7849411907561077 1.2398782563825945 0
          -2.7773075655550583 1.2418091539526521 0
          -2.7697528517035361 1.2440287788096474 0
          -2.7622682855610208 1.2464745039293024 0
          -2.754838050812066 1.2490806148147389 0
          -2.7474406490396972 1.2517785008894238 0
          -2.740050651270368 1.2544965989565129 0
          -2.7326408199531556 1.2571601584091212 0
          -2.7251845916627437 1.2596909440990336 0
          -2.7176589005981295 1.2620070395159873 0
          -2.7100472944358658 1.2640229559205911 0
          -2.7023432408027626 1.2656502845149811 0
          -2.6945534412807817 1.2667991362436541 0
          -2.6867008640244978 1.2673805805934768 0
          -2.6788270905619833 1.2673102022960969 0
          -2.6709934766378476 1.2665127293940603 0
          -2.6632805946391747 1.2649274491896896 0
          -2.6557855055642166 1.2625138487601302 0
          -2.6484369347511421 1.2596853764832743 0
          -2.6412579317541049 1.256450632689541 0
          -2.634267992819312 1.2528254027359367 0
          -2.6274820925597919 1.2488312857653754 0
          -2.6209100343107474 1.2444943135516335 0
          -2.6145561189763935 1.2398436257385608 0
          -2.6084191075227561 1.2349102611702196 0
          -2.6024924348637053 1.2297261115099636 0
          -2.5967646232004657 1.2243230663317279 0
          -2.5912198402646758 1.2187323613455039 0
          -2.5858385509462085 1.2129841256594609 0
          -2.5805982176406985 1.2071071113694281 0
          -2.5754740134996599 1.201128579865762 0
          -2.5704395220373093 1.1950743139834834 0
          -2.5654674050715323 1.1889687230139832 0
          -2.5605300280139529 1.1828350079780261 0
          -2.5556000367307523 1.176695356743559 0
          -2.5506508835406581 1.1705711419584721 0
          -2.5456573015926542 1.1644830988942376 0
          -2.5405957272089363 1.1584514648372779 0
          -2.5354446691984576 1.1524960664114459 0
          -2.5301850230750667 1.1466363460323945 0
          -2.5248003269657109 1.1408913234807176 0
          -2.5192769551322436 1.1352794932300929 0
          -2.5136042447424165 1.1298186625469677 0
          -2.5077745520008947 1.1245257393222028 0
          -2.5017832350654103 1.1194164819080104 0
          -2.4956285632823705 1.1145052257151897 0
          -2.4893115550217777 1.1098046028008184 0
          -2.4828357495193489 1.1053252710279597 0
          -2.4762069213270079 1.1010756685759866 0
          -2.469432748892868 1.0970618076956435 0
          -2.4625224511237498 1.093287118814501 0
          -2.4554864072784723 1.0897523526720585 0
          -2.448335776047351 1.0864555444233013 0
          -2.4410821291543963 1.0833920399366734 0
          -2.433737113346794 1.0805545811447241 0
          -2.426312152377808 1.077933444540031 0
          -2.4188181977742276 1.0755166249162662 0
          -2.4112655340661626 1.0732900553082658 0
          -2.4036636409976957 1.071237853765439 0
          -2.3960211122501502 1.0693425880004317 0
          -2.3883456275619186 1.067585549933513 0
          -2.3806439729268081 1.0659470335150902 0
          -2.3729221018460951 1.0644066107591774 0
          -2.3651852293996689 1.062943402477466 0
          -2.3574379501565934 1.0615363416119692 0
          -2.3496843706141561 1.0601644282053031 0
          -2.3419282468814622 1.0588069758426315 0
          -2.3341731186592964 1.0574438498093433 0
          -2.3264224311756578 1.0560556972325894 0
          -2.3186796375945389 1.0546241691459508 0
          -2.310948275515611 1.0531321337973243 0
          -2.303232012523468 1.0515638796975253 0
          -2.2955346573251143 1.0499053059860619 0
          -2.2878601348215946 1.0481440967862525 0
          -2.2802124254630791 1.0462698754503401 0
          -2.2725954713792587 1.044274334061986 0
          -2.2650130539721531 1.0421513333509864 0
          -2.2574686497915009 1.0398969683304036 0
          -2.2499652734471742 1.0375095954910505 0
          -2.2425053179011578 1.0349898182321251 0
          -2.2350904035797603 1.0323404282679791 0
          -2.2277212482306696 1.0295663018845858 0
          -2.2203975692286906 1.0266742509538394 0
          -2.2131180290624397 1.0236728293759951 0
          -2.20588023301636 1.0205720959648286 0
          -2.1986807856541142 1.0173833346301893 0
          -2.1915154097169616 1.0141187320505864 0
          -2.18437912762993 1.0107910119758423 0
          -2.1772665021685382 1.0074130240868218 0
          -2.1701719292522079 1.0039972843071443 0
          -2.1630899726502668 1.0005554630359978 0
          -2.1560157280618908 0.99709781841398992 0
          -2.1489452031133087 0.99363257388008575 0
          -2.1418757009327707 0.99016524326257749 0
        </DataArray>
      </Points>
      <Cells>
        <DataArray type="Int32" Name="connectivity" format="ascii">
          0 1 1 2 2 3 3 4 4 5 5 6 6 7 7 8 8 9 9 10 10 11 11 12 12 13 13 14 14 15 15 16 16 17 17 18 18 19 19 20 20 21 21 22 22 23 23 24 24 25 25 26 26 27 27 28 28 29 29 30 30 31 31 32 32 33 33 34 34 35 35 36 36 37 37 38 38 39 39 40 40 41 41 42 42 43 43 44 44 45 45 46 46 47 47 48 48 49 49 50 50 51 51 52 52 53 53 54 54 55 55 56 56 57 57 58 58 59 59 60 60 61 61 62 62 63 63 64 64 65 65 66 66 67 67 68 68 69 69 70 70 71 71 72 72 73 73 74 74 75 75 76 76 77 77 78 78 79 79 80 80 81 81 82 82 83 83 84 84 85 85 86 86 87 87 88 88 89 89 90 90 91 91 92 92 93 93 94 94 95 95 96 96 97 97 98 98 99 99 100 100 101 101 102 102 103 103 104 104 105 105 106 106 107 107 108 108 109 109 110 110 111 111 112 112 113 113 114 114 115 115 116 116 117 117 118 118 119 119 120 120 121 121 122 122 123 123 124 124 125 125 126 126 127 
        </DataArray>
        <DataArray type="Int32" Name="offsets" format="ascii">
          2 4 6 8 10 12 14 16 18 20 22 24 26 28 30 32 34 36 38 40 42 44 46 48 50 52 54 56 58 60 62 64 66 68 70 72 74 76 78 80 82 84 86 88 90 92 94 96 98 100 102 104 106 108 110 112 114 116 118 120 122 124 126 128 130 132 134 136 138 140 142 144 146 148 150 152 154 156 158 160 162 164 166 168 170 172 174 176 178 180 182 184 186 188 190 192 194 196 198 200 202 204 206 208 210 212 214 216 218 220 222 224 226 228 230 232 234 236 238 240 242 244 246 248 250 252 254 
        </DataArray>
        <DataArray type="Int32" Name="types" format="ascii">
          3 3 3 3 3 3 3 3 3 3 3 3 3 3 3 3 3 3 3 3 3 3 3 3 3 3 3 3 3 3 3 3 3 3 3 3 3 3 3 3 3 3 3 3 3 3 3 3 3 3 3 3 3 3 3 3 3 3 3 3 3 3 3 3 3 3 3 3 3 3 3 3 3 3 3 3 3 3 3 3 3 3 3 3 3 3 3 3 3 3 3 3 3 3 3 3 3 3 3 3 3 3 3 3 3 3 3 3 3 3 3 3 3 3 3 3 3 3 3 3 3 3 3 3 3 3 3         </DataArray>
      </Cells>
    </Piece>
  </UnstructuredGrid>
</VTKFile>
<!-- DATA


-->
