<?xml version="1.0"?>
<VTKFile type="UnstructuredGrid" version="0.1" byte_order="LittleEndian">
  <UnstructuredGrid>
    <Piece NumberOfPoints="128" NumberOfCells="127">
      <PointData Scalars="u">
        <DataArray type="Float32" Name="Y" NumberOfComponents="2">

0 0
0.091837408160088882 -0.24015843264824432
0.06626843205060845 -0.27486866031813734
0.0470839326882668 -0.29690627383329643
0.038748287561732701 -0.31488282085373803
0.038874300795166315 -0.32838941218778994
0.045326271148047971 -0.33746714841239406
0.055050627347546864 -0.34186924698203125
0.068274721595762949 -0.34316872835888612
0.083320983182534766 -0.34108155250371891
0.097941252653806418 -0.33560216807569465
0.11369552396682744 -0.32806855201049356
0.12895522871166767 -0.31818541456807775
0.14225328443695004 -0.30654148163084088
0.15402945442963059 -0.29414218579672297
0.16586438039270937 -0.28116678526719152
0.1749147614987891 -0.26732929942485228
0.18399140883891157 -0.25298623197905923
0.19009295309437679 -0.23855997550984906
0.19486959313960714 -0.22475545570229036
0.19962829471487184 -0.21140523169107261
0.20184292734550449 -0.19939136217562267
0.20491457131673049 -0.18876936501731645
0.20638859451758659 -0.1814422284303793
0.20838199103104577 -0.17865388351575676
0.21210027932693221 -0.18076943188704322
0.21935421094811416 -0.18651993048418899
0.22758525944528027 -0.19698402948143801
0.24024000209797056 -0.21006833271311812
0.25460693993649242 -0.22694727302557963
0.27328314255240477 -0.24537277965885015
0.29364778184051027 -0.26619161293535304
0.31745816172714392 -0.28652942547988997
0.34122484377617185 -0.30737377962275186
0.3661316347027011 -0.32514400475414362
0.38795835331380513 -0.34069110472463404
0.40690954782113919 -0.35026657173191045
0.41873976038829147 -0.35464166846749762
0.42215113805082283 -0.35214138259347083
0.41493230430780442 -0.33937407762675492
0.39297233286859978 -0.31698885246049552
0.35563913538810843 -0.28379932514451833
0.30181214157251285 -0.23802911939142665
0.2312069531895469 -0.18143973566615104
0.14754450450591025 -0.11584148915727085
0.055447021199624982 -0.044013115104381009
-0.03896473956951161 0.030681280295743449
-0.12841587049250852 0.10422581997111589
-0.20461620628777408 0.17203737552063156
-0.25821963464952891 0.23048534722349376
-0.28853959437657173 0.27327489870193256
-0.28991969756252844 0.30145737553230956
-0.26034460607456611 0.31022837270606257
-0.20107258646094278 0.29824406872435105
-0.12395963100119141 0.26389498822890001
-0.036247428134156622 0.21563662862486005
0.051831454156203632 0.15966168950915535
0.13153070618076435 0.10535134080909835
0.18815076093400401 0.060118258163298445
0.23352079444618715 0.042840155704190468
0.25281331422988401 0.051690155948400866
0.26073874825647581 0.094350688222909609
0.23470059623001338 0.15031525631453987
0.21269512556437548 0.22762999817052837
0.19792974510967881 0.32040600946954073
0.19536028128165431 0.42325391006909141
0.20586952312298529 0.53040205470229451
0.22983738655152855 0.63702708754604953
0.26762354040747655 0.73906913614122072
0.31632959944346067 0.83391772507729767
0.37523931351614492 0.91998176075402349
0.44277199332068284 0.99615876804812165
0.51722304135643316 1.0617226280370156
0.5971663071079365 1.1160901574671858
0.68201737534276974 1.1585328458555006
0.76889050419987159 1.1903133272876627
0.85773482112288868 1.2126117763392299
0.94844067715366565 1.226806170315939
1.0410107741218451 1.2344311935839276
1.135901275680933 1.236987159520113
1.2338863527064914 1.235897276566132
1.3359123819142311 1.2324979053518907
1.4441463161176387 1.2267840910966232
1.5590144156109562 1.2212344443637411
1.6833099826524522 1.2167103943626061
1.8193400074702113 1.2139924972754557
1.9691780892015012 1.2133628808021357
2.1344070148628767 1.2147498584237673
2.3160945946258717 1.2174238336956276
2.5150203818146784 1.2193609775398826
2.7305412164082923 1.2212926714561581
2.9628813874220459 1.2225578715593435
3.2113111671774091 1.2227922765978683
3.4743185596381232 1.2219271730154904
3.7498069470430253 1.2198787326663412
4.0351425560809826 1.2170060601431449
4.32756684167191 1.2140776379255278
4.6245575128271668 1.2123045467422022
4.9242554115149968 1.2133518249101376
5.2259270784362508 1.2193582232444813
5.5304209372611997 1.2329723733962008
5.8405501752349078 1.2574537381509485
6.1613274708373433 1.2967873355010531
6.4999570374607956 1.3559326404381895
6.8654749413814482 1.4411725084617018
7.2679025270048214 1.5605160527428199
7.7168036181784121 1.7241038807584954
8.2191836107259242 1.9445459185984844
8.7766976415113387 2.2369658344882075
9.3823184122075709 2.618295961365424
10.017250330536678 3.1037465211970257
10.649042638430995 3.704850806782221
11.228133498432856 4.4273207947803934
11.692621874733238 5.2551001491309401
11.971069683195525 6.1515489832590173
11.99385212535435 7.0493778723188409
11.70585480448525 7.8522864759719102
11.080046533850034 8.4409113780796101
10.131616046158651 8.6888900153478748
8.907198953606704 8.4990718346813772
7.4995527552956007 7.8054427438153651
6.0422149331168171 6.6259009444977846
4.6094700193246396 5.1551621816568369
3.2908626082239807 3.6370962088189094
1.9880943407168508 2.3570115487341314
0.97622986687807312 1.2073022855244508
0.26251846659999156 0.36736178051127832
0 0

        </DataArray>
        <DataArray type="Float32" Name="W" NumberOfComponents="2">

-31.476631998143741 9.8902842620166389
-31.472474967904382 9.8835932424332853
-31.467901286913101 9.8771791424447031
-31.46291763621025 9.8710782110221977
-31.457549858772953 9.8653124475595124
-31.451824256400666 9.8599019466224185
-31.445767544873028 9.8548649511936883
-31.439406733707585 9.8502179918212072
-31.432770488651425 9.8459737638691873
-31.425886442883314 9.8421446395289731
-31.41878231472781 9.8387413062701796
-31.411486955380738 9.8357701074013768
-31.404027966578798 9.8332377751871576
-31.3964329224167 9.8311488998630878
-31.388729618405122 9.8295039058992888
-31.380945138493516 9.8283007871205843
-31.373105264963741 9.8275387664123848
-31.365235313435431 9.8272120405867422
-31.357359368344351 9.8273165414190515
-31.349500440745036 9.8278430028206163
-31.341680044175163 9.8287809310192245
-31.333918643380137 9.8301215783739
-31.326234684135777 9.8318512466700767
-31.318645908444324 9.8339592647371301
-31.311167476755948 9.8364300015945911
-31.303812292778805 9.8392461914536913
-31.296591218354706 9.8423900545732721
-31.289514946938784 9.8458472642740968
-31.28258999354005 9.8495981347915986
-31.275823376370862 9.8536274025952224
-31.269217567609957 9.8579149988763835
-31.262775628553683 9.8624448682458592
-31.256495844423814 9.8671967854882698
-31.25037810582009 9.8721553977253969
-31.24441635002184 9.877300318692086
-31.238607444905949 9.8826170486710616
-31.232941851591814 9.8880860849473038
-31.227414048647969 9.8936942135796269
-31.222012366553066 9.8994237895246044
-31.21672321159765 9.9052572838176047
-31.21153886225953 9.9111840106928391
-31.206444313398769 9.9171880129502679
-31.201423835800686 9.9232540125680568
-31.196468547135272 9.9293733220016716
-31.191562211372169 9.9355319110702585
-31.186688699285337 9.9417164896481331
-31.181830182927975 9.9479128628363895
-31.176967659999335 9.9541061283466146
-31.172080726246993 9.9602802193388165
-31.167146071923277 9.9664163445197893
-31.162128812749106 9.9724852688629309
-31.157012992389582 9.9784715507993109
-31.151770434983877 9.9843474242894352
-31.146371453668152 9.990080233918837
-31.140784778039045 9.9956307034422895
-31.134992678262364 10.000966943671932
-31.128978252838195 10.006051866857144
-31.122728838475311 10.010845724488536
-31.116236404817815 10.015305729572196
-31.10950856989405 10.019402938915876
-31.102547363750883 10.023090847029271
-31.095371092549811 10.026341817794975
-31.087995165406817 10.029109753168704
-31.080454453937136 10.031390373686131
-31.072782888992162 10.033181536467566
-31.06501391334362 10.034486043069718
-31.057179305914282 10.035307776937023
-31.049309431405998 10.035652906159074
-31.041433095343582 10.035529467430303
-31.033577618965513 10.034945144460949
-31.025768777398142 10.03391068097342
-31.018030744766104 10.032437833992708
-31.010386139567188 10.030539188506502
-31.002856021311029 10.02822819904976
-30.995460060046955 10.025518641352352
-30.988217451002761 10.022422637474783
-30.98114544169032 10.018954777753843
-30.974259895466709 10.015130198203165
-30.96757550322133 10.010964159295998
-30.961105653655309 10.006472292195841
-30.954862404266045 10.001670573209463
-30.948856421468331 9.9965753141276732
-30.943096745095268 9.9912033117903079
-30.937592807869429 9.9855696895155468
-30.932350774820112 9.9796916981060306
-30.927374994957169 9.9735867913298097
-30.922667862273361 9.9672725493801977
-30.918229698175601 9.9607665660197817
-30.914058450849087 9.9540864404419995
-30.910150087102455 9.9472493185724531
-30.906500879204145 9.9402705716206956
-30.903102653828032 9.9331663683240325
-30.899945166831923 9.9259520852177214
-30.897016246752024 9.9186421620240885
-30.894301633497363 9.9112501134769087
-30.891785732787167 9.9037882265567649
-30.889451604654223 9.8962676247034196
-30.887281211003987 9.8886982641385828
-30.885255645044779 9.8810889736730196
-30.883355317737529 9.8734475355447362
-30.881560055142657 9.8657808083319658
-30.879849099329714 9.8580948829704749
-30.878200933798503 9.850395282891558
-30.876593078524795 9.8426871750712195
-30.875001608248073 9.8349756531768744
-30.873400589830403 9.8272660669215366
-30.871761396717332 9.8195644384962399
-30.870052138158808 9.8118779603412989
-30.868237064113156 9.8042156561537617
-30.866276432452754 9.7965891499137374
-30.86412669973728 9.7890136005964283
-30.86174530690375 9.7815074579894947
-30.859084997675492 9.7740953654572085
-30.856104072232093 9.7668060745970369
-30.852765898572272 9.7596730739607107
-30.849043522581329 9.7527325768167543
-30.844923942428743 9.746019965398947
-30.840408378524756 9.7395668014650436
-30.835521131057352 9.7333900684668233
-30.830299622412031 9.7274928871049742
-30.824800418677544 9.7218534309065223
-30.819137811259065 9.7163777519105849
-30.813420419881631 9.7109590049625663
-30.807669078918124 9.7055759464787474
-30.801667329946959 9.7004738282427851
-30.795484183551608 9.6955934176582517
-30.789194021111662 9.6908520947608352
-30.782903417192777 9.6861118223426761

        </DataArray>
        <DataArray type="Float32" Name="u" NumberOfComponents="1">
          0 0.007874015748031496 0.015748031496062992 0.023622047244094488 0.031496062992125984 0.03937007874015748 0.047244094488188976 0.055118110236220472 0.062992125984251968 0.070866141732283464 0.07874015748031496 0.086614173228346455 0.094488188976377951 0.10236220472440945 0.11023622047244094 0.11811023622047244 0.12598425196850394 0.13385826771653545 0.14173228346456693 0.14960629921259844 0.15748031496062992 0.16535433070866143 0.17322834645669291 0.18110236220472442 0.1889763779527559 0.19685039370078741 0.20472440944881889 0.2125984251968504 0.22047244094488189 0.2283464566929134 0.23622047244094488 0.24409448818897639 0.25196850393700787 0.25984251968503935 0.26771653543307089 0.27559055118110237 0.28346456692913385 0.29133858267716534 0.29921259842519687 0.30708661417322836 0.31496062992125984 0.32283464566929132 0.33070866141732286 0.33858267716535434 0.34645669291338582 0.3543307086614173 0.36220472440944884 0.37007874015748032 0.37795275590551181 0.38582677165354329 0.39370078740157483 0.40157480314960631 0.40944881889763779 0.41732283464566927 0.42519685039370081 0.43307086614173229 0.44094488188976377 0.44881889763779526 0.45669291338582679 0.46456692913385828 0.47244094488188976 0.48031496062992124 0.48818897637795278 0.49606299212598426 0.50393700787401574 0.51181102362204722 0.51968503937007871 0.52755905511811019 0.53543307086614178 0.54330708661417326 0.55118110236220474 0.55905511811023623 0.56692913385826771 0.57480314960629919 0.58267716535433067 0.59055118110236215 0.59842519685039375 0.60629921259842523 0.61417322834645671 0.62204724409448819 0.62992125984251968 0.63779527559055116 0.64566929133858264 0.65354330708661412 0.66141732283464572 0.6692913385826772 0.67716535433070868 0.68503937007874016 0.69291338582677164 0.70078740157480313 0.70866141732283461 0.71653543307086609 0.72440944881889768 0.73228346456692917 0.74015748031496065 0.74803149606299213 0.75590551181102361 0.76377952755905509 0.77165354330708658 0.77952755905511806 0.78740157480314965 0.79527559055118113 0.80314960629921262 0.8110236220472441 0.81889763779527558 0.82677165354330706 0.83464566929133854 0.84251968503937003 0.85039370078740162 0.8582677165354331 0.86614173228346458 0.87401574803149606 0.88188976377952755 0.88976377952755903 0.89763779527559051 0.90551181102362199 0.91338582677165359 0.92125984251968507 0.92913385826771655 0.93700787401574803 0.94488188976377951 0.952755905511811 0.96062992125984248 0.96850393700787396 0.97637795275590555 0.98425196850393704 0.99212598425196852 1
        </DataArray>
      </PointData>
      <CellData Scalars="P">
        <DataArray type="Float32" Name="P" NumberOfComponents="1">
          0.029356377853682527 0.31902869895882846 0.71285324990734233 1.1894178178959798 1.73228929673098 2.3268041615467667 2.959011079745185 3.6109738243061642 4.279659944050529 4.9590177409761473 5.6365790689320745 6.3154535152582012 6.9905061596521545 7.6500916974688336 8.2909437113195938 8.9210614927300522 9.5322409195945603 10.130823374180196 10.704914350610181 11.253333199662432 11.781770268880196 12.278681418252656 12.747300856577668 13.171069887237341 13.542699316114543 13.863598703674143 14.143819261588295 14.377961822656678 14.576439958660941 14.736635316517889 14.868626122152456 14.973857932529079 15.064291176069641 15.142614932135748 15.22168120563461 15.304330143734052 15.401521603746833 15.511938098870749 15.637290711154979 15.786232472038721 15.945660091970282 16.107209208037851 16.27539058166057 16.423101114606773 16.538869875304364 16.6112188077702 16.637033523181181 16.62296341105105 16.586885147269417 16.555974833320182 16.584964037147895 16.722709304862711 17.034258884146194 17.57547719784376 18.314586182313974 19.229902260547892 20.264300192151762 21.331206851081543 22.270608558731855 23.063552099528135 23.59914684008633 23.909170883235834 24.023616095397468 23.996234536574995 23.871980396894898 23.693583094873087 23.49436872480149 23.299531861664672 23.126799458030664 22.983125015259549 22.871967610786797 22.79517423004917 22.753671196708982 22.748409071052375 22.779239741426572 22.836524937948727 22.909783523346224 22.988716042880913 23.062330766933304 23.119408856076642 23.14896351200629 23.140835935931712 23.085965798998149 22.969403189173338 22.77899245536868 22.506448271665601 22.148093433555744 21.705845494099169 21.187006480845312 20.597662565029133 19.952435925141593 19.265582362825004 18.554932402292046 17.841689858546058 17.146192505189379 16.488380669971033 15.885426991890345 15.350744279504477 14.893720622817893 14.520482217761748 14.235672456365021 14.045688018146134 13.962336809493907 14.008867485168636 14.22612486261886 14.679531862416738 15.463593172834408 16.70400546292143 18.547721367823218 21.140785303879998 24.529693373387317 28.760065876483463 33.586619956289972 38.584225985685357 43.063082400457546 46.139792812139468 46.927459035447278 44.774261464489342 39.598204599654991 32.196944488120934 25.967791628579118 23.334427520511351 21.517339398293181 10.490801848045546 3.2063684129754897 -0.20963129040366654 -0.030675591294915816
        </DataArray>
      </CellData>
      <Points>
        <DataArray type="Float32" NumberOfComponents="3" format="ascii">
          -31.476631998143741 9.8902842620166389 0
          -31.472474967904382 9.8835932424332853 0
          -31.467901286913101 9.8771791424447031 0
          -31.46291763621025 9.8710782110221977 0
          -31.457549858772953 9.8653124475595124 0
          -31.451824256400666 9.8599019466224185 0
          -31.445767544873028 9.8548649511936883 0
          -31.439406733707585 9.8502179918212072 0
          -31.432770488651425 9.8459737638691873 0
          -31.425886442883314 9.8421446395289731 0
          -31.41878231472781 9.8387413062701796 0
          -31.411486955380738 9.8357701074013768 0
          -31.404027966578798 9.8332377751871576 0
          -31.3964329224167 9.8311488998630878 0
          -31.388729618405122 9.8295039058992888 0
          -31.380945138493516 9.8283007871205843 0
          -31.373105264963741 9.8275387664123848 0
          -31.365235313435431 9.8272120405867422 0
          -31.357359368344351 9.8273165414190515 0
          -31.349500440745036 9.8278430028206163 0
          -31.341680044175163 9.8287809310192245 0
          -31.333918643380137 9.8301215783739 0
          -31.326234684135777 9.8318512466700767 0
          -31.318645908444324 9.8339592647371301 0
          -31.311167476755948 9.8364300015945911 0
          -31.303812292778805 9.8392461914536913 0
          -31.296591218354706 9.8423900545732721 0
          -31.289514946938784 9.8458472642740968 0
          -31.28258999354005 9.8495981347915986 0
          -31.275823376370862 9.8536274025952224 0
          -31.269217567609957 9.8579149988763835 0
          -31.262775628553683 9.8624448682458592 0
          -31.256495844423814 9.8671967854882698 0
          -31.25037810582009 9.8721553977253969 0
          -31.24441635002184 9.877300318692086 0
          -31.238607444905949 9.8826170486710616 0
          -31.232941851591814 9.8880860849473038 0
          -31.227414048647969 9.8936942135796269 0
          -31.222012366553066 9.8994237895246044 0
          -31.21672321159765 9.9052572838176047 0
          -31.21153886225953 9.9111840106928391 0
          -31.206444313398769 9.9171880129502679 0
          -31.201423835800686 9.9232540125680568 0
          -31.196468547135272 9.9293733220016716 0
          -31.191562211372169 9.9355319110702585 0
          -31.186688699285337 9.9417164896481331 0
          -31.181830182927975 9.9479128628363895 0
          -31.176967659999335 9.9541061283466146 0
          -31.172080726246993 9.9602802193388165 0
          -31.167146071923277 9.9664163445197893 0
          -31.162128812749106 9.9724852688629309 0
          -31.157012992389582 9.9784715507993109 0
          -31.151770434983877 9.9843474242894352 0
          -31.146371453668152 9.990080233918837 0
          -31.140784778039045 9.9956307034422895 0
          -31.134992678262364 10.000966943671932 0
          -31.128978252838195 10.006051866857144 0
          -31.122728838475311 10.010845724488536 0
          -31.116236404817815 10.015305729572196 0
          -31.10950856989405 10.019402938915876 0
          -31.102547363750883 10.023090847029271 0
          -31.095371092549811 10.026341817794975 0
          -31.087995165406817 10.029109753168704 0
          -31.080454453937136 10.031390373686131 0
          -31.072782888992162 10.033181536467566 0
          -31.06501391334362 10.034486043069718 0
          -31.057179305914282 10.035307776937023 0
          -31.049309431405998 10.035652906159074 0
          -31.041433095343582 10.035529467430303 0
          -31.033577618965513 10.034945144460949 0
          -31.025768777398142 10.03391068097342 0
          -31.018030744766104 10.032437833992708 0
          -31.010386139567188 10.030539188506502 0
          -31.002856021311029 10.02822819904976 0
          -30.995460060046955 10.025518641352352 0
          -30.988217451002761 10.022422637474783 0
          -30.98114544169032 10.018954777753843 0
          -30.974259895466709 10.015130198203165 0
          -30.96757550322133 10.010964159295998 0
          -30.961105653655309 10.006472292195841 0
          -30.954862404266045 10.001670573209463 0
          -30.948856421468331 9.9965753141276732 0
          -30.943096745095268 9.9912033117903079 0
          -30.937592807869429 9.9855696895155468 0
          -30.932350774820112 9.9796916981060306 0
          -30.927374994957169 9.9735867913298097 0
          -30.922667862273361 9.9672725493801977 0
          -30.918229698175601 9.9607665660197817 0
          -30.914058450849087 9.9540864404419995 0
          -30.910150087102455 9.9472493185724531 0
          -30.906500879204145 9.9402705716206956 0
          -30.903102653828032 9.9331663683240325 0
          -30.899945166831923 9.9259520852177214 0
          -30.897016246752024 9.9186421620240885 0
          -30.894301633497363 9.9112501134769087 0
          -30.891785732787167 9.9037882265567649 0
          -30.889451604654223 9.8962676247034196 0
          -30.887281211003987 9.8886982641385828 0
          -30.885255645044779 9.8810889736730196 0
          -30.883355317737529 9.8734475355447362 0
          -30.881560055142657 9.8657808083319658 0
          -30.879849099329714 9.8580948829704749 0
          -30.878200933798503 9.850395282891558 0
          -30.876593078524795 9.8426871750712195 0
          -30.875001608248073 9.8349756531768744 0
          -30.873400589830403 9.8272660669215366 0
          -30.871761396717332 9.8195644384962399 0
          -30.870052138158808 9.8118779603412989 0
          -30.868237064113156 9.8042156561537617 0
          -30.866276432452754 9.7965891499137374 0
          -30.86412669973728 9.7890136005964283 0
          -30.86174530690375 9.7815074579894947 0
          -30.859084997675492 9.7740953654572085 0
          -30.856104072232093 9.7668060745970369 0
          -30.852765898572272 9.7596730739607107 0
          -30.849043522581329 9.7527325768167543 0
          -30.844923942428743 9.746019965398947 0
          -30.840408378524756 9.7395668014650436 0
          -30.835521131057352 9.7333900684668233 0
          -30.830299622412031 9.7274928871049742 0
          -30.824800418677544 9.7218534309065223 0
          -30.819137811259065 9.7163777519105849 0
          -30.813420419881631 9.7109590049625663 0
          -30.807669078918124 9.7055759464787474 0
          -30.801667329946959 9.7004738282427851 0
          -30.795484183551608 9.6955934176582517 0
          -30.789194021111662 9.6908520947608352 0
          -30.782903417192777 9.6861118223426761 0
        </DataArray>
      </Points>
      <Cells>
        <DataArray type="Int32" Name="connectivity" format="ascii">
          0 1 1 2 2 3 3 4 4 5 5 6 6 7 7 8 8 9 9 10 10 11 11 12 12 13 13 14 14 15 15 16 16 17 17 18 18 19 19 20 20 21 21 22 22 23 23 24 24 25 25 26 26 27 27 28 28 29 29 30 30 31 31 32 32 33 33 34 34 35 35 36 36 37 37 38 38 39 39 40 40 41 41 42 42 43 43 44 44 45 45 46 46 47 47 48 48 49 49 50 50 51 51 52 52 53 53 54 54 55 55 56 56 57 57 58 58 59 59 60 60 61 61 62 62 63 63 64 64 65 65 66 66 67 67 68 68 69 69 70 70 71 71 72 72 73 73 74 74 75 75 76 76 77 77 78 78 79 79 80 80 81 81 82 82 83 83 84 84 85 85 86 86 87 87 88 88 89 89 90 90 91 91 92 92 93 93 94 94 95 95 96 96 97 97 98 98 99 99 100 100 101 101 102 102 103 103 104 104 105 105 106 106 107 107 108 108 109 109 110 110 111 111 112 112 113 113 114 114 115 115 116 116 117 117 118 118 119 119 120 120 121 121 122 122 123 123 124 124 125 125 126 126 127 
        </DataArray>
        <DataArray type="Int32" Name="offsets" format="ascii">
          2 4 6 8 10 12 14 16 18 20 22 24 26 28 30 32 34 36 38 40 42 44 46 48 50 52 54 56 58 60 62 64 66 68 70 72 74 76 78 80 82 84 86 88 90 92 94 96 98 100 102 104 106 108 110 112 114 116 118 120 122 124 126 128 130 132 134 136 138 140 142 144 146 148 150 152 154 156 158 160 162 164 166 168 170 172 174 176 178 180 182 184 186 188 190 192 194 196 198 200 202 204 206 208 210 212 214 216 218 220 222 224 226 228 230 232 234 236 238 240 242 244 246 248 250 252 254 
        </DataArray>
        <DataArray type="Int32" Name="types" format="ascii">
          3 3 3 3 3 3 3 3 3 3 3 3 3 3 3 3 3 3 3 3 3 3 3 3 3 3 3 3 3 3 3 3 3 3 3 3 3 3 3 3 3 3 3 3 3 3 3 3 3 3 3 3 3 3 3 3 3 3 3 3 3 3 3 3 3 3 3 3 3 3 3 3 3 3 3 3 3 3 3 3 3 3 3 3 3 3 3 3 3 3 3 3 3 3 3 3 3 3 3 3 3 3 3 3 3 3 3 3 3 3 3 3 3 3 3 3 3 3 3 3 3 3 3 3 3 3 3         </DataArray>
      </Cells>
    </Piece>
  </UnstructuredGrid>
</VTKFile>
<!-- DATA


-->
