<?xml version="1.0"?>
<VTKFile type="UnstructuredGrid" version="0.1" byte_order="LittleEndian">
  <UnstructuredGrid>
    <Piece NumberOfPoints="128" NumberOfCells="127">
      <PointData Scalars="u">
        <DataArray type="Float32" Name="Y" NumberOfComponents="2">

0 0
0.01242527761758112 0.0042997891881049119
0.040464721960792545 0.015272737031711895
0.07887286699431878 0.029906190014066133
0.12231422709588664 0.047418755953190977
0.16599284682352236 0.067279136093226916
0.20569459152896022 0.088863333699145189
0.23784905947582294 0.1111959574075979
0.25962081503869466 0.13278974747007877
0.26902585832671239 0.15159370729877725
0.26505574774956064 0.1650541535222384
0.24778121730247143 0.17028355431949341
0.21840203454565796 0.16431948830919649
0.17921213505864786 0.14444224632914693
0.13345932020501614 0.1085075817504651
0.085095728671799917 0.055244416042746963
0.038435689892546136 -0.015531227486892231
-0.0022430923933623699 -0.10282406301781757
-0.033105508437328783 -0.20450846851603716
-0.051118371112882366 -0.3175147314604217
-0.054315597695669515 -0.43812629217435994
-0.041937156370678894 -0.56234452768783671
-0.014430602621622535 -0.68626936329084753
0.02667431355023343 -0.80644576670684953
0.07898957734255134 -0.92013666526186499
0.13955188639307592 -1.025498880178821
0.20512199344526974 -1.1216563472873282
0.27246160314206425 -1.2086805277664729
0.33855777436328222 -1.287498922321169
0.40077573484761209 -1.359757812031098
0.4569317028638315 -1.4276648881033247
0.50528604880428185 -1.4938323439149455
0.544463234378883 -1.5611327693107933
0.5733087301158597 -1.6325703374986025
0.59069557204531742 -1.7111596753414888
0.59529586292652636 -1.7997956540764133
0.58533692032783391 -1.9010903183166712
0.55836919342239744 -2.0171497044171591
0.51108401908496359 -2.149265239120262
0.4392329972548622 -2.2975040596993983
0.33771459993286573 -2.4602023859557685
0.20090262541559098 -2.6333977040420242
0.023287896780092267 -2.8102785179156684
-0.19951976565128562 -2.9807801795421858
-0.46943603307040965 -3.1315011355038291
-0.7842863375884298 -3.2461381712601427
-1.1361356926314705 -3.306619064469452
-1.5098855849868908 -3.2950245783613448
-1.8825388269259427 -3.1962288825684761
-2.2235260573971338 -3.0009634202399509
-2.4963506193870675 -2.7087736735893624
-2.5869263644632956 -2.4086030545424228
-2.4753836635198385 -2.1833945475994621
-2.2912308929197724 -1.9221923069283544
-2.0432510410598481 -1.6386490966751126
-1.7411620044766365 -1.342915166205439
-1.3952155618282707 -1.041981379069244
-1.0158372561047853 -0.74013537666546403
-0.61333983123717761 -0.43948404822220516
-0.19771744107708433 -0.14050113454981888
0.22148890771008017 0.15743319761067168
0.63527350892636159 0.45552566282876328
1.0352179093679774 0.75511372380847674
1.413533876060096 1.0572723151960597
1.7631146182019546 1.3624921403679595
2.0776056694020104 1.670436027949336
2.3515000549402445 1.979778276690173
2.5802554155379513 2.2881303030482019
2.7604243373368131 2.5920536273860124
2.8897839173282884 2.8871579268884524
2.9674471922057917 3.1682775055363157
2.9939379763246503 3.4297143921818511
2.97121216663807 3.6655310023994341
2.9026126438773461 3.8698707111077337
2.7927511107403391 4.0372816524107833
2.6473177835519142 4.1630183049368261
2.4728277458213554 4.2432973292651965
2.2763198408612419 4.2754886495594491
2.0650291956409359 4.2582294087943735
1.8460571113879323 4.1914562933049879
1.626061841651063 4.076359736055597
1.4109909028578413 3.915270589871624
1.2058706214191059 3.7114951464310515
1.0146624774300108 3.4691173445413361
0.84018939282271587 3.1927875486086856
0.68412927162156789 2.8875156407703764
0.54706844122074438 2.5584828855628357
0.42860449387902455 2.2108827575325201
0.32748642702396585 1.8497963414908856
0.24177975065419849 1.4801035964431586
0.16904503931761966 1.1064281381183334
0.10651988075578121 0.73311048525428046
0.051295945455412773 0.36420301822774087
0.00048468416981110348 0.0034791748244287985
-0.048633244506542758 -0.34555046613692147
-0.098478404970993444 -0.67962175670893743
-0.15106544684581164 -0.99570545192159177
-0.20792020311982079 -1.2910042194995115
-0.27002221374531871 -1.5629600824201777
-0.33777331182272302 -1.8092724677535681
-0.41099232914676842 -2.0279254722837634
-0.48893531940081153 -2.2172216673560752
-0.57033994129545784 -2.3758188449408206
-0.65349181518251187 -2.5027656166452452
-0.73630982388635458 -2.597531744893073
-0.81644655104216335 -2.6600294998165612
-0.89139942681790962 -2.6906231456167453
-0.95862775993477878 -2.6901247795313927
-1.0156707278599009 -2.6597760619517832
-1.0602615950193963 -2.6012167581026446
-1.090433906927863 -2.516442331698074
-1.1046161107700592 -2.4077539713060814
-1.1017118902369969 -2.2777052980551078
-1.0811643742914987 -2.129050532793602
-1.0430031828664703 -1.9646990559367643
-0.98787392469691182 -1.7876810602049946
-0.91705020935814918 -1.6011283785192787
-0.83242847113623064 -1.4082735742263282
-0.73650596646216815 -1.2124690197541568
-0.63234230091742161 -1.0172259697151023
-0.52350491452235892 -0.82627157070748936
-0.41399930015034975 -0.6436193739922369
-0.30818556342462383 -0.4736462984171193
-0.21068445327693808 -0.32116625492600487
-0.12627833126894705 -0.19148798494434127
-0.059815694310687624 -0.090442340508129132
-0.016131588052739392 -0.024362528158562199
0 0

        </DataArray>
        <DataArray type="Float32" Name="W" NumberOfComponents="2">

-2.1533070576761255 0.9862383633132551
-2.1505504663564965 0.97886263331578982
-2.1478157646047449 0.97147876249327114
-2.1450463301758025 0.96410784958210893
-2.1421854947225594 0.95677192731999516
-2.1391778611659515 0.94949495589658228
-2.1359706249554606 0.94230372019485964
-2.1325149024581278 0.93522853112176718
-2.1287670536442684 0.92830364500200813
-2.1246899659146496 0.92156733399214241
-2.1202542450205772 0.91506156510775982
-2.1154392416023455 0.90883127540648245
-2.1102338317559899 0.90292326471250306
-2.1046368702490694 0.89738476235358788
-2.0986572471173264 0.89226175702182542
-2.0923135020680381 0.88759720487785365
-2.0856329840502199 0.88342924649217858
-2.0786505814322949 0.87978956538626951
-2.0714070862791716 0.87670200884978178
-2.0639472889262351 0.87418156656601353
-2.0563179219424192 0.87223376758602789
-2.0485655828509688 0.87085451600392338
-2.0407347619175455 0.87003034553179748
-2.0328660862721617 0.86973903793263163
-2.0249948675939162 0.8699505236941466
-2.017150011488738 0.87062796757152328
-2.0093533166349911 0.87172893714729283
-2.0016191643596426 0.87320655833024252
-1.9939545771691758 0.87501057567855733
-1.9863596093446856 0.87708825500094223
-1.9788280243094454 0.87938508824069195
-1.9713482114058245 0.88184528388844929
-1.9639042975934125 0.88441204835083009
-1.9564774156097213 0.88702768368471818
-1.9490470973744185 0.88963354430253139
-1.9415927679655736 0.89216990948028851
-1.9340953196218096 0.89457583978707023
-1.9265387454492766 0.89678909392438766
-1.9189118076686924 0.8987461877164542
-1.9112097045416188 0.90038267850484621
-1.9034356833001527 0.90163375477457142
-1.8956025239486265 0.90243520062857241
-1.887733792270589 0.90272478532807277
-1.879864732821392 0.90244409689096894
-1.8720426490701005 0.90154079350837957
-1.8643266051679641 0.89997118667714937
-1.8567862906805499 0.89770299785404417
-1.8494999249185757 0.89471805307911134
-1.842551147891722 0.89101460992648296
-1.8360249512833016 0.88660896602465344
-1.8300028366436429 0.88153599841475627
-1.8245575289616209 0.87584834546838919
-1.8192726172764253 0.87001136250198263
-1.8141411850828983 0.86403901252476789
-1.8091518140498148 0.85794749002976611
-1.8042891286043929 0.85175437452994407
-1.7995343984675016 0.84547800125976691
-1.7948661742773526 0.83913702776402421
-1.7902609339765188 0.83275016808856084
-1.7856937221978701 0.82633606217751565
-1.7811387698929622 0.81991324652424113
-1.7765700858627416 0.81350019262157069
-1.7719620150991573 0.80711538179619158
-1.7672897607183233 0.80077738814680821
-1.7625298668225358 0.79450494520296933
-1.7576606591162309 0.78831697635889075
-1.7526626388815914 0.78223257397620738
-1.7475188244134079 0.77627091719474695
-1.7422150326510994 0.77045112384113823
-1.7367400929266261 0.76479203724008415
-1.7310859847941389 0.7593119540074279
-1.7252478930314641 0.7540283037662211
-1.7192241751720903 0.74895729585829329
-1.7130162402454601 0.74411355119711808
-1.7066283415206449 0.7395097391385772
-1.7000672905787699 0.7351562394465494
-1.6933421045131234 0.73106084805305283
-1.6864636019833403 0.72722854247622792
-1.67944396679311 0.72366131874435258
-1.6722962992960506 0.72035810689185731
-1.6650341760978815 0.71731476703175068
-1.6576712372280094 0.71452416316485412
-1.6502208173785069 0.71197630769895826
-1.6426956342595262 0.70965856644811742
-1.6351075429784725 0.70755591184785649
-1.6274673610133408 0.70565121128936859
-1.6197847641806695 0.70392553774332955
-1.6120682502844306 0.70235849100804904
-1.6043251640691967 0.70092851971264758
-1.596561774788295 0.69961323634973438
-1.5887833961496982 0.69838971983589415
-1.580994537568857 0.69723480217667666
-1.5731990754471781 0.6961253375777291
-1.5654004334974201 0.69503845368999395
-1.5576017618424303 0.69395178555966164
-1.549806105622447 0.69284369328061324
-1.5420165550774427 0.69169346436839729
-1.5342363704617834 0.69048150157087518
-1.5264690766510938 0.68918949630121928
-1.5187185238776479 0.68780058723197246
-1.5109889126464917 0.68629950293114195
-1.503284782503961 0.6846726868497286
-1.4956109659124155 0.6829084025645521
-1.4879725099829946 0.68099681699779291
-1.4803745701806619 0.67893005940576112
-1.4728222812904215 0.67670225425601249
-1.4653206118721953 0.67430952666838195
-1.4578742090957697 0.67174997983157225
-1.4504872412121783 0.66902364465316788
-1.4431632449772938 0.66613240277581398
-1.4359049851094845 0.66307988491008385
-1.4287143323656242 0.65987134711342088
-1.4215921661020805 0.65651352811376407
-1.4145383063014982 0.65301449098224651
-1.4075514790462718 0.64938345236884176
-1.4006293183554179 0.64563060211845524
-1.3937684062135263 0.64176691539712039
-1.3869643515363339 0.6378039585170403
-1.3802119077517807 0.63375368851687219
-1.3735051276322074 0.62962824531431827
-1.3668375529922208 0.62543973400839448
-1.3602024358722169 0.62119999379665003
-1.3535929868810637 0.6169203491354428
-1.3470026455246731 0.61261133837146942
-1.3404253666944164 0.60828241527976712
-1.3338559171755628 0.60394161992216278
-1.3272901762562579 0.59959521713478947
-1.3207254355027451 0.59524730386955238

        </DataArray>
        <DataArray type="Float32" Name="u" NumberOfComponents="1">
          0 0.007874015748031496 0.015748031496062992 0.023622047244094488 0.031496062992125984 0.03937007874015748 0.047244094488188976 0.055118110236220472 0.062992125984251968 0.070866141732283464 0.07874015748031496 0.086614173228346455 0.094488188976377951 0.10236220472440945 0.11023622047244094 0.11811023622047244 0.12598425196850394 0.13385826771653545 0.14173228346456693 0.14960629921259844 0.15748031496062992 0.16535433070866143 0.17322834645669291 0.18110236220472442 0.1889763779527559 0.19685039370078741 0.20472440944881889 0.2125984251968504 0.22047244094488189 0.2283464566929134 0.23622047244094488 0.24409448818897639 0.25196850393700787 0.25984251968503935 0.26771653543307089 0.27559055118110237 0.28346456692913385 0.29133858267716534 0.29921259842519687 0.30708661417322836 0.31496062992125984 0.32283464566929132 0.33070866141732286 0.33858267716535434 0.34645669291338582 0.3543307086614173 0.36220472440944884 0.37007874015748032 0.37795275590551181 0.38582677165354329 0.39370078740157483 0.40157480314960631 0.40944881889763779 0.41732283464566927 0.42519685039370081 0.43307086614173229 0.44094488188976377 0.44881889763779526 0.45669291338582679 0.46456692913385828 0.47244094488188976 0.48031496062992124 0.48818897637795278 0.49606299212598426 0.50393700787401574 0.51181102362204722 0.51968503937007871 0.52755905511811019 0.53543307086614178 0.54330708661417326 0.55118110236220474 0.55905511811023623 0.56692913385826771 0.57480314960629919 0.58267716535433067 0.59055118110236215 0.59842519685039375 0.60629921259842523 0.61417322834645671 0.62204724409448819 0.62992125984251968 0.63779527559055116 0.64566929133858264 0.65354330708661412 0.66141732283464572 0.6692913385826772 0.67716535433070868 0.68503937007874016 0.69291338582677164 0.70078740157480313 0.70866141732283461 0.71653543307086609 0.72440944881889768 0.73228346456692917 0.74015748031496065 0.74803149606299213 0.75590551181102361 0.76377952755905509 0.77165354330708658 0.77952755905511806 0.78740157480314965 0.79527559055118113 0.80314960629921262 0.8110236220472441 0.81889763779527558 0.82677165354330706 0.83464566929133854 0.84251968503937003 0.85039370078740162 0.8582677165354331 0.86614173228346458 0.87401574803149606 0.88188976377952755 0.88976377952755903 0.89763779527559051 0.90551181102362199 0.91338582677165359 0.92125984251968507 0.92913385826771655 0.93700787401574803 0.94488188976377951 0.952755905511811 0.96062992125984248 0.96850393700787396 0.97637795275590555 0.98425196850393704 0.99212598425196852 1
        </DataArray>
      </PointData>
      <CellData Scalars="P">
        <DataArray type="Float32" Name="P" NumberOfComponents="1">
          0.0032984188296951876 0.0031770366617977397 0.033684864852944744 0.11509828357734675 0.25241022137503116 0.43760893052616079 0.65229336805504967 0.87051354291069072 1.0617430657573121 1.1938879596143026 1.2362163360814062 1.1620676411662527 0.95117963525913551 0.5914672709294676 0.080108012479361321 -0.5761647242990241 -1.3615884909299276 -2.2526648442926187 -3.2200821350020443 -4.2310640868861462 -5.2518983514719642 -6.2503891014330675 -7.1979991667236138 -8.071494460874252 -8.85396701233919 -9.5351820625858075 -10.111259758351206 -10.58375607705675 -10.958247485196313 -11.242549626217562 -11.444714969667102 -11.570962310050399 -11.6236970945022 -11.599789781350044 -11.48929199294445 -11.274786787866859 -10.931586466524607 -10.42900191676258 -9.7329007966044347 -8.8097334182105556 -7.6321179023335528 -6.1859224580475418 -4.4785489538126866 -2.5478059422763639 -0.47037967103217554 1.6314813766329321 3.5867706295661068 5.1778385273678262 6.1494305063239887 6.2256236739985544 5.1345820449759634 4.4966370541339504 3.6261596733095653 2.6345799495302384 1.6249798222879661 0.6867140049183571 -0.1074642237752523 -0.70249318298043395 -1.0608734767272323 -1.161748191402451 -0.99950383279279187 -0.5821037109829712 0.070714744167351934 0.92930772086305835 1.9560280232534402 3.1071569864330866 4.3348669381611105 5.5892112981840691 6.8201258757603824 7.9794063414494554 9.0226073458552829 9.9107923683289787 10.612053605093548 11.102720582131873 11.368185854186201 11.403295679936912 11.212280900873994 10.808235085077413 10.212179289728232 9.4517814889866241 8.5598204146012318 7.5724960675208051 6.5276917450822625 5.4632857895303131 4.4155972458935739 3.4180307584973941 2.4999650694153481 1.6859088908028688 0.99492962741729496 0.44034563240737112 0.029661876618917261 -0.23527801978994203 -0.35795405765518895 -0.34667818113786536 -0.21397981233626881 0.024101734618600129 0.34879008876018702 0.7393837485023107 1.174082401495836 1.6308041658778254 2.0879714186429816 2.5252441434074435 2.9241813438429576 3.2688131933314262 3.5461092929953324 3.7463316403273055 3.86326450741455 3.8943171451272831 3.8404987812644258 3.7062684985255094 3.4992650723838796 3.2299236631716854 2.910987510315453 2.556923786171418 2.1832540466141936 1.8058119473060703 1.4399448731694326 1.09968266790667 0.79690645726358422 0.54056406205988616 0.33599563360632084 0.18445311981235557 0.082918204855510741 0.024342478752042072 -0.001553509933012915 -0.0067845237881264111 -0.0027875144533230983
        </DataArray>
      </CellData>
      <Points>
        <DataArray type="Float32" NumberOfComponents="3" format="ascii">
          -2.1533070576761255 0.9862383633132551 0
          -2.1505504663564965 0.97886263331578982 0
          -2.1478157646047449 0.97147876249327114 0
          -2.1450463301758025 0.96410784958210893 0
          -2.1421854947225594 0.95677192731999516 0
          -2.1391778611659515 0.94949495589658228 0
          -2.1359706249554606 0.94230372019485964 0
          -2.1325149024581278 0.93522853112176718 0
          -2.1287670536442684 0.92830364500200813 0
          -2.1246899659146496 0.92156733399214241 0
          -2.1202542450205772 0.91506156510775982 0
          -2.1154392416023455 0.90883127540648245 0
          -2.1102338317559899 0.90292326471250306 0
          -2.1046368702490694 0.89738476235358788 0
          -2.0986572471173264 0.89226175702182542 0
          -2.0923135020680381 0.88759720487785365 0
          -2.0856329840502199 0.88342924649217858 0
          -2.0786505814322949 0.87978956538626951 0
          -2.0714070862791716 0.87670200884978178 0
          -2.0639472889262351 0.87418156656601353 0
          -2.0563179219424192 0.87223376758602789 0
          -2.0485655828509688 0.87085451600392338 0
          -2.0407347619175455 0.87003034553179748 0
          -2.0328660862721617 0.86973903793263163 0
          -2.0249948675939162 0.8699505236941466 0
          -2.017150011488738 0.87062796757152328 0
          -2.0093533166349911 0.87172893714729283 0
          -2.0016191643596426 0.87320655833024252 0
          -1.9939545771691758 0.87501057567855733 0
          -1.9863596093446856 0.87708825500094223 0
          -1.9788280243094454 0.87938508824069195 0
          -1.9713482114058245 0.88184528388844929 0
          -1.9639042975934125 0.88441204835083009 0
          -1.9564774156097213 0.88702768368471818 0
          -1.9490470973744185 0.88963354430253139 0
          -1.9415927679655736 0.89216990948028851 0
          -1.9340953196218096 0.89457583978707023 0
          -1.9265387454492766 0.89678909392438766 0
          -1.9189118076686924 0.8987461877164542 0
          -1.9112097045416188 0.90038267850484621 0
          -1.9034356833001527 0.90163375477457142 0
          -1.8956025239486265 0.90243520062857241 0
          -1.887733792270589 0.90272478532807277 0
          -1.879864732821392 0.90244409689096894 0
          -1.8720426490701005 0.90154079350837957 0
          -1.8643266051679641 0.89997118667714937 0
          -1.8567862906805499 0.89770299785404417 0
          -1.8494999249185757 0.89471805307911134 0
          -1.842551147891722 0.89101460992648296 0
          -1.8360249512833016 0.88660896602465344 0
          -1.8300028366436429 0.88153599841475627 0
          -1.8245575289616209 0.87584834546838919 0
          -1.8192726172764253 0.87001136250198263 0
          -1.8141411850828983 0.86403901252476789 0
          -1.8091518140498148 0.85794749002976611 0
          -1.8042891286043929 0.85175437452994407 0
          -1.7995343984675016 0.84547800125976691 0
          -1.7948661742773526 0.83913702776402421 0
          -1.7902609339765188 0.83275016808856084 0
          -1.7856937221978701 0.82633606217751565 0
          -1.7811387698929622 0.81991324652424113 0
          -1.7765700858627416 0.81350019262157069 0
          -1.7719620150991573 0.80711538179619158 0
          -1.7672897607183233 0.80077738814680821 0
          -1.7625298668225358 0.79450494520296933 0
          -1.7576606591162309 0.78831697635889075 0
          -1.7526626388815914 0.78223257397620738 0
          -1.7475188244134079 0.77627091719474695 0
          -1.7422150326510994 0.77045112384113823 0
          -1.7367400929266261 0.76479203724008415 0
          -1.7310859847941389 0.7593119540074279 0
          -1.7252478930314641 0.7540283037662211 0
          -1.7192241751720903 0.74895729585829329 0
          -1.7130162402454601 0.74411355119711808 0
          -1.7066283415206449 0.7395097391385772 0
          -1.7000672905787699 0.7351562394465494 0
          -1.6933421045131234 0.73106084805305283 0
          -1.6864636019833403 0.72722854247622792 0
          -1.67944396679311 0.72366131874435258 0
          -1.6722962992960506 0.72035810689185731 0
          -1.6650341760978815 0.71731476703175068 0
          -1.6576712372280094 0.71452416316485412 0
          -1.6502208173785069 0.71197630769895826 0
          -1.6426956342595262 0.70965856644811742 0
          -1.6351075429784725 0.70755591184785649 0
          -1.6274673610133408 0.70565121128936859 0
          -1.6197847641806695 0.70392553774332955 0
          -1.6120682502844306 0.70235849100804904 0
          -1.6043251640691967 0.70092851971264758 0
          -1.596561774788295 0.69961323634973438 0
          -1.5887833961496982 0.69838971983589415 0
          -1.580994537568857 0.69723480217667666 0
          -1.5731990754471781 0.6961253375777291 0
          -1.5654004334974201 0.69503845368999395 0
          -1.5576017618424303 0.69395178555966164 0
          -1.549806105622447 0.69284369328061324 0
          -1.5420165550774427 0.69169346436839729 0
          -1.5342363704617834 0.69048150157087518 0
          -1.5264690766510938 0.68918949630121928 0
          -1.5187185238776479 0.68780058723197246 0
          -1.5109889126464917 0.68629950293114195 0
          -1.503284782503961 0.6846726868497286 0
          -1.4956109659124155 0.6829084025645521 0
          -1.4879725099829946 0.68099681699779291 0
          -1.4803745701806619 0.67893005940576112 0
          -1.4728222812904215 0.67670225425601249 0
          -1.4653206118721953 0.67430952666838195 0
          -1.4578742090957697 0.67174997983157225 0
          -1.4504872412121783 0.66902364465316788 0
          -1.4431632449772938 0.66613240277581398 0
          -1.4359049851094845 0.66307988491008385 0
          -1.4287143323656242 0.65987134711342088 0
          -1.4215921661020805 0.65651352811376407 0
          -1.4145383063014982 0.65301449098224651 0
          -1.4075514790462718 0.64938345236884176 0
          -1.4006293183554179 0.64563060211845524 0
          -1.3937684062135263 0.64176691539712039 0
          -1.3869643515363339 0.6378039585170403 0
          -1.3802119077517807 0.63375368851687219 0
          -1.3735051276322074 0.62962824531431827 0
          -1.3668375529922208 0.62543973400839448 0
          -1.3602024358722169 0.62119999379665003 0
          -1.3535929868810637 0.6169203491354428 0
          -1.3470026455246731 0.61261133837146942 0
          -1.3404253666944164 0.60828241527976712 0
          -1.3338559171755628 0.60394161992216278 0
          -1.3272901762562579 0.59959521713478947 0
          -1.3207254355027451 0.59524730386955238 0
        </DataArray>
      </Points>
      <Cells>
        <DataArray type="Int32" Name="connectivity" format="ascii">
          0 1 1 2 2 3 3 4 4 5 5 6 6 7 7 8 8 9 9 10 10 11 11 12 12 13 13 14 14 15 15 16 16 17 17 18 18 19 19 20 20 21 21 22 22 23 23 24 24 25 25 26 26 27 27 28 28 29 29 30 30 31 31 32 32 33 33 34 34 35 35 36 36 37 37 38 38 39 39 40 40 41 41 42 42 43 43 44 44 45 45 46 46 47 47 48 48 49 49 50 50 51 51 52 52 53 53 54 54 55 55 56 56 57 57 58 58 59 59 60 60 61 61 62 62 63 63 64 64 65 65 66 66 67 67 68 68 69 69 70 70 71 71 72 72 73 73 74 74 75 75 76 76 77 77 78 78 79 79 80 80 81 81 82 82 83 83 84 84 85 85 86 86 87 87 88 88 89 89 90 90 91 91 92 92 93 93 94 94 95 95 96 96 97 97 98 98 99 99 100 100 101 101 102 102 103 103 104 104 105 105 106 106 107 107 108 108 109 109 110 110 111 111 112 112 113 113 114 114 115 115 116 116 117 117 118 118 119 119 120 120 121 121 122 122 123 123 124 124 125 125 126 126 127 
        </DataArray>
        <DataArray type="Int32" Name="offsets" format="ascii">
          2 4 6 8 10 12 14 16 18 20 22 24 26 28 30 32 34 36 38 40 42 44 46 48 50 52 54 56 58 60 62 64 66 68 70 72 74 76 78 80 82 84 86 88 90 92 94 96 98 100 102 104 106 108 110 112 114 116 118 120 122 124 126 128 130 132 134 136 138 140 142 144 146 148 150 152 154 156 158 160 162 164 166 168 170 172 174 176 178 180 182 184 186 188 190 192 194 196 198 200 202 204 206 208 210 212 214 216 218 220 222 224 226 228 230 232 234 236 238 240 242 244 246 248 250 252 254 
        </DataArray>
        <DataArray type="Int32" Name="types" format="ascii">
          3 3 3 3 3 3 3 3 3 3 3 3 3 3 3 3 3 3 3 3 3 3 3 3 3 3 3 3 3 3 3 3 3 3 3 3 3 3 3 3 3 3 3 3 3 3 3 3 3 3 3 3 3 3 3 3 3 3 3 3 3 3 3 3 3 3 3 3 3 3 3 3 3 3 3 3 3 3 3 3 3 3 3 3 3 3 3 3 3 3 3 3 3 3 3 3 3 3 3 3 3 3 3 3 3 3 3 3 3 3 3 3 3 3 3 3 3 3 3 3 3 3 3 3 3 3 3         </DataArray>
      </Cells>
    </Piece>
  </UnstructuredGrid>
</VTKFile>
<!-- DATA


-->
