<?xml version="1.0"?>
<VTKFile type="UnstructuredGrid" version="0.1" byte_order="LittleEndian">
  <UnstructuredGrid>
    <Piece NumberOfPoints="128" NumberOfCells="127">
      <PointData Scalars="u">
        <DataArray type="Float32" Name="Y" NumberOfComponents="2">

0 0
0.024619634439617274 -0.022103908396228798
0.015273153830494875 -0.023150098745958969
-0.0012122499322517247 -0.027857379059046096
-0.022401332520333567 -0.033761983767603976
-0.045861167422245851 -0.039383837512554712
-0.06937022985129028 -0.044019448008631668
-0.091046847200372552 -0.047518400564049768
-0.10940862409823762 -0.050068971128661932
-0.12337966057832024 -0.052011140723507557
-0.1322640375731661 -0.053687905433950203
-0.13570272638032974 -0.05533939511154555
-0.13362767919691571 -0.05703958719580407
-0.1262223298843955 -0.058672453531481802
-0.11389291537718477 -0.059942921753377648
-0.097250549185302265 -0.060417560823990191
-0.077100271487782021 -0.059589828022471404
-0.054430631001840514 -0.056964555906204743
-0.030395899737879904 -0.052155775997084541
-0.0062828898675053599 -0.044990891255419323
0.016544394134644973 -0.035612751686300202
0.036726388498026452 -0.024569729087033112
0.053016112319569382 -0.012882942903808087
0.064409223635839508 -0.002079950355148488
0.07028620855617812 0.005813994502756035
0.070552153051245362 0.0083322732075327491
0.065756108739957936 0.002670365682683811
0.057170856460709657 -0.014171010378488754
0.046815515621841226 -0.045217891623964133
0.037408089264678465 -0.093351364141919788
0.032242130241890953 -0.16115723199563065
0.03499005918049132 -0.25082233525221781
0.049443550136267313 -0.36409863133273396
0.079207008397090162 -0.50234771816890689
0.12736205163916686 -0.66666661552992468
0.19611845923913931 -0.85808168255423134
0.2864608475886064 -1.0777829758768835
0.3977922057654481 -1.3273572513344918
0.52756843678424081 -1.6089647250872228
0.67091619811418723 -1.925392754723541
0.82023423170552912 -2.2799091172681361
0.96480073126291788 -2.6758302758739667
1.0904499676851476 -3.1157206107260862
1.1794415310945303 -3.600156177775991
1.2107202763895231 -4.1260353598805555
1.1608385808727344 -4.6845161776651336
1.0058527418666405 -5.2588199866591623
0.72446161032010781 -5.8223609951327786
0.30246632507082072 -6.3379015217354278
-0.26175132048072014 -6.7586008650264002
-0.95159201654401571 -7.0317737908707452
-1.5789904280558722 -7.1350352883951302
-2.0186523145666149 -7.1338497531427976
-2.4317277009367522 -7.004502614736472
-2.7969145859303559 -6.7626524768151839
-3.0968247423992392 -6.4262448980418529
-3.3186648228944504 -6.0145618516973638
-3.4544932945942133 -5.5471342620714861
-3.5010844819363647 -5.0426764270930349
-3.4594732277379814 -4.5181690615565655
-3.3342792552355944 -3.9881741143795892
-3.1329171299419172 -3.4644187218123141
-2.8647882238818489 -2.9556455060157405
-2.5405304944000662 -2.4676968061539366
-2.1713761867678607 -2.0037829942120835
-1.76864201894175 -1.5648787533375967
-1.3433546749199481 -1.1501934394557551
-0.90599843299037164 -0.75766918677652184
-0.46636190287784374 -0.38447028177280007
-0.033456547308073813 -0.027437254465940825
0.38452019998032949 0.31651227837961549
0.78020109847663133 0.65004733794391667
1.1470631156262505 0.97515848076605294
1.479451530633852 1.2929672877046539
1.7726197992682318 1.6036116225170045
2.0227846676817118 1.9062059484891569
2.2271907270705191 2.1988739724308197
2.3841746048075456 2.4788484584367656
2.4932166101365647 2.7426301795872789
2.5549670980773751 2.9861948409803469
2.5712361123744918 3.2052337988700468
2.5449378592596505 3.3954119950680477
2.479985868848444 3.5526252091321799
2.3811397625071438 3.6732388711884782
2.2538096866907575 3.754292443499518
2.1038290071291188 3.7936566823204809
1.9372091871536625 3.7901355962686232
1.7598925025856105 3.743510088810067
1.5775182273824049 3.6545254776236904
1.3952162810710635 3.5248297010201561
1.2174394062213487 3.3568725476078418
1.0478412329032958 3.1537783662288441
0.88920362575262135 2.919205335151366
0.74341298976639991 2.6572036050801922
0.61148210870534636 2.3720827495542571
0.49361182080731386 2.0682963211243921
0.38928546427728533 1.7503483057469593
0.29738846101696936 1.422723246946632
0.21634548378542742 1.0898390581468531
0.14426813642172071 0.75601926049588308
0.079106745242785839 0.42547969516981177
0.018800511369961411 0.10232372014026854
-0.038579224015442996 -0.2094604823545399
-0.094697561778085124 -0.50600661575645389
-0.15084134626484555 -0.78358629996492768
-0.207826081295647 -1.0386383954572123
-0.26592935637023929 -1.2678138548513644
-0.32485547187207187 -1.4680363281653814
-0.38373537658059725 -1.636576647023801
-0.44116493034736232 -1.7711373428838295
-0.49528281138187702 -1.8699417645653478
-0.54388711215888119 -1.9318214056646925
-0.5845869335098709 -1.9562949478281728
-0.61498231847969254 -1.943633397945193
-0.63286296678051357 -1.8949075365021175
-0.63641366774220387 -1.8120165211689783
-0.62441260231707552 -1.6976995424528807
-0.59640783237093853 -1.5555353928124951
-0.55285758249784878 -1.3899370701846994
-0.49522138623913187 -1.2061494727323965
-0.42599184894036696 -1.0102573290214285
-0.34866070841164981 -0.80920744155254798
-0.26761816345073419 -0.61084411201176891
-0.18799127075245894 -0.4239496703357406
-0.11543576669630638 -0.25827417010361642
-0.055905949396247705 -0.12453072124850774
-0.01543879193628645 -0.034326960954483454
0 0

        </DataArray>
        <DataArray type="Float32" Name="W" NumberOfComponents="2">

-3.7556793055235906 1.7777478503847592
-3.7504802960888641 1.7718341688153958
-3.7456486976466081 1.7656167077813756
-3.7411700487204205 1.7591403893643252
-3.7370220692835185 1.7524474756314643
-3.7331753439975341 1.7455770048261869
-3.7295941315110372 1.7385644852966249
-3.7262372578832532 1.7314418608765518
-3.723059057074475 1.7242377434205165
-3.7200103303335395 1.7169778913565052
-3.7170393075632173 1.7096858984005106
-3.7140926054390646 1.7023840444576928
-3.7111161872754357 1.6950942513170104
-3.7080563366833914 1.6878390789247169
-3.7048606596736176 1.6806426936805559
-3.7014791272967504 1.6735317383823369
-3.6978651630935326 1.6665360344512909
-3.6939767671391657 1.6596890514579676
-3.6897776525808443 1.6530280874325598
-3.685238353174201 1.6465941166136611
-3.6803372437929749 1.6404312794634834
-3.675061402837863 1.6345860126578688
-3.6694072384604417 1.6291058432525913
-3.6633808016547427 1.6240378993714895
-3.6569977198230172 1.6194272168264523
-3.6502827044963144 1.61531494385253
-3.6432686152320741 1.6117365613796526
-3.6359950957323872 1.6087202412316994
-3.6285068342665827 1.6062854576553456
-3.6208515342929588 1.6044419484069987
-3.6130777085678201 1.6031890916927252
-3.6052324275649679 1.6025157275573545
-3.5973591586144584 1.6024004110442849
-3.5894958254510567 1.6028120443862759
-3.5816732003060809 1.6037108013258428
-3.5739137153226017 1.6050492323182837
-3.566230751006525 1.606773427496335
-3.5586284310442742 1.6088241160493351
-3.5511019290463102 1.6111375958732514
-3.5436382763319201 1.6136464147068634
-3.5362176516811843 1.6162797616250739
-3.5288151327929538 1.6189635736994901
-3.5214028913944535 1.6216204148829896
-3.5139528136381677 1.624169240558615
-3.5064395167588938 1.6265252185678203
-3.4988437031035735 1.6285998304515203
-3.491155735545056 1.6303015157345271
-3.4833792297978792 1.6315371328295705
-3.4755343434975159 1.6322144731455333
-3.4676603168532965 1.632245959499681
-3.4598167201997851 1.6315534719082454
-3.4520828402734507 1.6300739784259328
-3.4444468616334079 1.6281521001671746
-3.4369360454171463 1.6257879112893145
-3.429576004223335 1.6229894325118601
-3.4223893812385286 1.6197716601858261
-3.4153947720603934 1.6161554535319191
-3.40860593145492 1.6121663389998748
-3.4020312809781159 1.6078332991918851
-3.3956737090259521 1.6031876124338584
-3.3895306350694328 1.5982617998588502
-3.3835942961708727 1.5930887224909853
-3.3778522067849903 1.5877008541258804
-3.3722877417350547 1.5821297392855391
-3.3668807958423677 1.5764056310188603
-3.3616084803824426 1.570557291904376
-3.3564458247585627 1.564611933678199
-3.3513664601751327 1.5585952663179981
-3.3463432696673077 1.5525316256951085
-3.3413489949889552 1.5464441494497243
-3.3363567953117443 1.5403549729329589
-3.3313407554527199 1.5342854203619416
-3.326276342631433 1.5282561703379998
-3.321140810890026 1.5222873792911036
-3.3159135516830913 1.5163987510386567
-3.3105763881659604 1.5106095453446007
-3.3051138097637267 1.5049385230185623
-3.29951314301724 1.4994038295793131
-3.2937646547243582 1.4940228236716815
-3.2878615841722891 1.4888118600930051
-3.281800102824374 1.4837860402598972
-3.2755792021016616 1.4789589450418552
-3.2692005127006376 1.4743423659558765
-3.2626680619465223 1.4699460506740623
-3.2559879786827421 1.4657774776528316
-3.2491681578225546 1.4618416725572914
-3.2422178986572345 1.4581410762323466
-3.2351475321202199 1.4546754705426639
-3.2279680523408292 1.4514419647872998
-3.2206907669859235 1.4484350419145318
-3.2133269791849091 1.4456466607044782
-3.2058877114442077 1.4430664076702047
-3.1983834791118118 1.4406816907836244
-3.1908241178965171 1.4384779662992333
-3.1832186669105793 1.4364389898790966
-3.1755753058811962 1.4345470837998948
-3.1679013427060783 1.4327834130837673
-3.1602032454965965 1.4311282647527772
-3.1524867116934039 1.4295613258747162
-3.1447567657493671 1.4280619574749205
-3.1370178762229171 1.4266094625933772
-3.1292740828702046 1.4251833476639504
-3.1215291244261691 1.4237635769186463
-3.1137865581917463 1.4223308196506796
-3.1060498632790594 1.4208666899209368
-3.0983225204030838 1.4193539777144122
-3.0906080624484633 1.4177768697288446
-3.0829100916837846 1.4161211570149015
-3.0752322614300551 1.4143744257103614
-3.0675782221795265 1.4125262262500906
-3.0599515345372401 1.4105682158113875
-3.0523555538157545 1.4084942684690285
-3.0447932935122544 1.4063005476453212
-3.0372672770672393 1.4039855359541069
-3.0297793890610993 1.4015500183999055
-3.0223307381692872 1.3989970159902108
-3.0149215446133786 1.3963316679874365
-3.0075510644030734 1.3935610620778922
-3.0002175613117847 1.3906940124846445
-2.9929183352834476 1.3877407863590372
-2.9856498129216997 1.3847127785940141
-2.978407702030696 1.3816221345677975
-2.9711872081032134 1.3784813194389884
-2.963983306514244 1.3753026317968409
-2.9567910604005005 1.3720976591539675
-2.949605971318586 1.3688766734403528
-2.9424243484143267 1.3656479667879953
-2.9352436827181521 1.3624171318549252

        </DataArray>
        <DataArray type="Float32" Name="u" NumberOfComponents="1">
          0 0.007874015748031496 0.015748031496062992 0.023622047244094488 0.031496062992125984 0.03937007874015748 0.047244094488188976 0.055118110236220472 0.062992125984251968 0.070866141732283464 0.07874015748031496 0.086614173228346455 0.094488188976377951 0.10236220472440945 0.11023622047244094 0.11811023622047244 0.12598425196850394 0.13385826771653545 0.14173228346456693 0.14960629921259844 0.15748031496062992 0.16535433070866143 0.17322834645669291 0.18110236220472442 0.1889763779527559 0.19685039370078741 0.20472440944881889 0.2125984251968504 0.22047244094488189 0.2283464566929134 0.23622047244094488 0.24409448818897639 0.25196850393700787 0.25984251968503935 0.26771653543307089 0.27559055118110237 0.28346456692913385 0.29133858267716534 0.29921259842519687 0.30708661417322836 0.31496062992125984 0.32283464566929132 0.33070866141732286 0.33858267716535434 0.34645669291338582 0.3543307086614173 0.36220472440944884 0.37007874015748032 0.37795275590551181 0.38582677165354329 0.39370078740157483 0.40157480314960631 0.40944881889763779 0.41732283464566927 0.42519685039370081 0.43307086614173229 0.44094488188976377 0.44881889763779526 0.45669291338582679 0.46456692913385828 0.47244094488188976 0.48031496062992124 0.48818897637795278 0.49606299212598426 0.50393700787401574 0.51181102362204722 0.51968503937007871 0.52755905511811019 0.53543307086614178 0.54330708661417326 0.55118110236220474 0.55905511811023623 0.56692913385826771 0.57480314960629919 0.58267716535433067 0.59055118110236215 0.59842519685039375 0.60629921259842523 0.61417322834645671 0.62204724409448819 0.62992125984251968 0.63779527559055116 0.64566929133858264 0.65354330708661412 0.66141732283464572 0.6692913385826772 0.67716535433070868 0.68503937007874016 0.69291338582677164 0.70078740157480313 0.70866141732283461 0.71653543307086609 0.72440944881889768 0.73228346456692917 0.74015748031496065 0.74803149606299213 0.75590551181102361 0.76377952755905509 0.77165354330708658 0.77952755905511806 0.78740157480314965 0.79527559055118113 0.80314960629921262 0.8110236220472441 0.81889763779527558 0.82677165354330706 0.83464566929133854 0.84251968503937003 0.85039370078740162 0.8582677165354331 0.86614173228346458 0.87401574803149606 0.88188976377952755 0.88976377952755903 0.89763779527559051 0.90551181102362199 0.91338582677165359 0.92125984251968507 0.92913385826771655 0.93700787401574803 0.94488188976377951 0.952755905511811 0.96062992125984248 0.96850393700787396 0.97637795275590555 0.98425196850393704 0.99212598425196852 1
        </DataArray>
      </PointData>
      <CellData Scalars="P">
        <DataArray type="Float32" Name="P" NumberOfComponents="1">
          0.0048125210165077276 0.11719155533700516 0.28569250182151268 0.47356808759232699 0.65392191095635688 0.80917138468917327 0.93009936321692754 1.0146052319603678 1.0662758470349514 1.0928913553708515 1.1049639409660743 1.1143834567299802 1.133217399004852 1.1726878168663071 1.2423274514923335 1.349303344589212 1.4978888576325211 1.6890641296676807 1.9202294741179922 2.1850246961251525 2.4732581711900798 2.7709609929700738 3.0605916963329931 3.3214241414868746 3.5301534489098363 3.661751197859084 3.690590995532177 3.5918495156483434 3.3431677729704057 2.926535178586362 2.3303375931275818 1.5514925476285035 0.59758111899964361 -0.51112439278435906 -1.7398484745355922 -3.0378447434429492 -4.3374330278407385 -5.5537562908470433 -6.5855562145377657 -7.3173790850674871 -7.6237547182749186 -7.3760125197053981 -6.4524583240422491 -4.7525520331182314 -2.2153897135102532 1.1579172029966855 5.2795515530337793 9.9512094105678308 14.846319350341249 19.504934705235218 23.34842775014447 24.641702637156669 25.139881647833874 24.887328406217307 23.959931470464721 22.457331145461925 20.495061584953852 18.196914013728179 15.687898870381101 13.088148001997363 10.507994968935092 8.0443415846377633 5.7782936451145499 3.7739491873609414 2.0781582841499464 0.72104489399449789 -0.28291698490391115 -0.93345737697385922 -1.2428437227082487 -1.2341033666408761 -0.93920792505901041 -0.39726188855919525 0.34728387634629287 1.2463854473656608 2.2501214835243442 3.3083634349363464 4.3723845181232752 5.3963812821901174 6.3388714814955769 7.1639244609432691 7.8421772044849671 8.3515917251080527 8.6779178438296825 8.8148389574773152 8.7637956686349092 8.53350110905523 8.1391801580832013 7.6015804002528471 6.9458139011585738 6.200094730712749 5.3944374389199918 4.5593769539112809 3.7247617642419737 2.9186612580267388 2.1664162889800807 1.4898508554203125 0.90665332356182016 0.42992859898152569 0.067918302230435157 -0.17611582764592512 -0.30384990985711235 -0.32170049610840684 -0.24047328734741089 -0.074858583663107062 0.15722522472763373 0.43543563285084286 0.73794679029236576 1.0425070631611162 1.3275812159643581 1.5735308528019907 1.7637718974678649 1.885834164105973 1.9322376071850442 1.901094917243713 1.7963529542384711 1.6275980089699673 1.4093735363784639 1.1599947169312845 0.89989221558735966 0.64957724213053014 0.42738981667091391 0.24726877569430075 0.1168599943357036 0.036349895887326865 -0.0015379096191227323 -0.0099304543968329068 -0.0041662405379150214
        </DataArray>
      </CellData>
      <Points>
        <DataArray type="Float32" NumberOfComponents="3" format="ascii">
          -3.7556793055235906 1.7777478503847592 0
          -3.7504802960888641 1.7718341688153958 0
          -3.7456486976466081 1.7656167077813756 0
          -3.7411700487204205 1.7591403893643252 0
          -3.7370220692835185 1.7524474756314643 0
          -3.7331753439975341 1.7455770048261869 0
          -3.7295941315110372 1.7385644852966249 0
          -3.7262372578832532 1.7314418608765518 0
          -3.723059057074475 1.7242377434205165 0
          -3.7200103303335395 1.7169778913565052 0
          -3.7170393075632173 1.7096858984005106 0
          -3.7140926054390646 1.7023840444576928 0
          -3.7111161872754357 1.6950942513170104 0
          -3.7080563366833914 1.6878390789247169 0
          -3.7048606596736176 1.6806426936805559 0
          -3.7014791272967504 1.6735317383823369 0
          -3.6978651630935326 1.6665360344512909 0
          -3.6939767671391657 1.6596890514579676 0
          -3.6897776525808443 1.6530280874325598 0
          -3.685238353174201 1.6465941166136611 0
          -3.6803372437929749 1.6404312794634834 0
          -3.675061402837863 1.6345860126578688 0
          -3.6694072384604417 1.6291058432525913 0
          -3.6633808016547427 1.6240378993714895 0
          -3.6569977198230172 1.6194272168264523 0
          -3.6502827044963144 1.61531494385253 0
          -3.6432686152320741 1.6117365613796526 0
          -3.6359950957323872 1.6087202412316994 0
          -3.6285068342665827 1.6062854576553456 0
          -3.6208515342929588 1.6044419484069987 0
          -3.6130777085678201 1.6031890916927252 0
          -3.6052324275649679 1.6025157275573545 0
          -3.5973591586144584 1.6024004110442849 0
          -3.5894958254510567 1.6028120443862759 0
          -3.5816732003060809 1.6037108013258428 0
          -3.5739137153226017 1.6050492323182837 0
          -3.566230751006525 1.606773427496335 0
          -3.5586284310442742 1.6088241160493351 0
          -3.5511019290463102 1.6111375958732514 0
          -3.5436382763319201 1.6136464147068634 0
          -3.5362176516811843 1.6162797616250739 0
          -3.5288151327929538 1.6189635736994901 0
          -3.5214028913944535 1.6216204148829896 0
          -3.5139528136381677 1.624169240558615 0
          -3.5064395167588938 1.6265252185678203 0
          -3.4988437031035735 1.6285998304515203 0
          -3.491155735545056 1.6303015157345271 0
          -3.4833792297978792 1.6315371328295705 0
          -3.4755343434975159 1.6322144731455333 0
          -3.4676603168532965 1.632245959499681 0
          -3.4598167201997851 1.6315534719082454 0
          -3.4520828402734507 1.6300739784259328 0
          -3.4444468616334079 1.6281521001671746 0
          -3.4369360454171463 1.6257879112893145 0
          -3.429576004223335 1.6229894325118601 0
          -3.4223893812385286 1.6197716601858261 0
          -3.4153947720603934 1.6161554535319191 0
          -3.40860593145492 1.6121663389998748 0
          -3.4020312809781159 1.6078332991918851 0
          -3.3956737090259521 1.6031876124338584 0
          -3.3895306350694328 1.5982617998588502 0
          -3.3835942961708727 1.5930887224909853 0
          -3.3778522067849903 1.5877008541258804 0
          -3.3722877417350547 1.5821297392855391 0
          -3.3668807958423677 1.5764056310188603 0
          -3.3616084803824426 1.570557291904376 0
          -3.3564458247585627 1.564611933678199 0
          -3.3513664601751327 1.5585952663179981 0
          -3.3463432696673077 1.5525316256951085 0
          -3.3413489949889552 1.5464441494497243 0
          -3.3363567953117443 1.5403549729329589 0
          -3.3313407554527199 1.5342854203619416 0
          -3.326276342631433 1.5282561703379998 0
          -3.321140810890026 1.5222873792911036 0
          -3.3159135516830913 1.5163987510386567 0
          -3.3105763881659604 1.5106095453446007 0
          -3.3051138097637267 1.5049385230185623 0
          -3.29951314301724 1.4994038295793131 0
          -3.2937646547243582 1.4940228236716815 0
          -3.2878615841722891 1.4888118600930051 0
          -3.281800102824374 1.4837860402598972 0
          -3.2755792021016616 1.4789589450418552 0
          -3.2692005127006376 1.4743423659558765 0
          -3.2626680619465223 1.4699460506740623 0
          -3.2559879786827421 1.4657774776528316 0
          -3.2491681578225546 1.4618416725572914 0
          -3.2422178986572345 1.4581410762323466 0
          -3.2351475321202199 1.4546754705426639 0
          -3.2279680523408292 1.4514419647872998 0
          -3.2206907669859235 1.4484350419145318 0
          -3.2133269791849091 1.4456466607044782 0
          -3.2058877114442077 1.4430664076702047 0
          -3.1983834791118118 1.4406816907836244 0
          -3.1908241178965171 1.4384779662992333 0
          -3.1832186669105793 1.4364389898790966 0
          -3.1755753058811962 1.4345470837998948 0
          -3.1679013427060783 1.4327834130837673 0
          -3.1602032454965965 1.4311282647527772 0
          -3.1524867116934039 1.4295613258747162 0
          -3.1447567657493671 1.4280619574749205 0
          -3.1370178762229171 1.4266094625933772 0
          -3.1292740828702046 1.4251833476639504 0
          -3.1215291244261691 1.4237635769186463 0
          -3.1137865581917463 1.4223308196506796 0
          -3.1060498632790594 1.4208666899209368 0
          -3.0983225204030838 1.4193539777144122 0
          -3.0906080624484633 1.4177768697288446 0
          -3.0829100916837846 1.4161211570149015 0
          -3.0752322614300551 1.4143744257103614 0
          -3.0675782221795265 1.4125262262500906 0
          -3.0599515345372401 1.4105682158113875 0
          -3.0523555538157545 1.4084942684690285 0
          -3.0447932935122544 1.4063005476453212 0
          -3.0372672770672393 1.4039855359541069 0
          -3.0297793890610993 1.4015500183999055 0
          -3.0223307381692872 1.3989970159902108 0
          -3.0149215446133786 1.3963316679874365 0
          -3.0075510644030734 1.3935610620778922 0
          -3.0002175613117847 1.3906940124846445 0
          -2.9929183352834476 1.3877407863590372 0
          -2.9856498129216997 1.3847127785940141 0
          -2.978407702030696 1.3816221345677975 0
          -2.9711872081032134 1.3784813194389884 0
          -2.963983306514244 1.3753026317968409 0
          -2.9567910604005005 1.3720976591539675 0
          -2.949605971318586 1.3688766734403528 0
          -2.9424243484143267 1.3656479667879953 0
          -2.9352436827181521 1.3624171318549252 0
        </DataArray>
      </Points>
      <Cells>
        <DataArray type="Int32" Name="connectivity" format="ascii">
          0 1 1 2 2 3 3 4 4 5 5 6 6 7 7 8 8 9 9 10 10 11 11 12 12 13 13 14 14 15 15 16 16 17 17 18 18 19 19 20 20 21 21 22 22 23 23 24 24 25 25 26 26 27 27 28 28 29 29 30 30 31 31 32 32 33 33 34 34 35 35 36 36 37 37 38 38 39 39 40 40 41 41 42 42 43 43 44 44 45 45 46 46 47 47 48 48 49 49 50 50 51 51 52 52 53 53 54 54 55 55 56 56 57 57 58 58 59 59 60 60 61 61 62 62 63 63 64 64 65 65 66 66 67 67 68 68 69 69 70 70 71 71 72 72 73 73 74 74 75 75 76 76 77 77 78 78 79 79 80 80 81 81 82 82 83 83 84 84 85 85 86 86 87 87 88 88 89 89 90 90 91 91 92 92 93 93 94 94 95 95 96 96 97 97 98 98 99 99 100 100 101 101 102 102 103 103 104 104 105 105 106 106 107 107 108 108 109 109 110 110 111 111 112 112 113 113 114 114 115 115 116 116 117 117 118 118 119 119 120 120 121 121 122 122 123 123 124 124 125 125 126 126 127 
        </DataArray>
        <DataArray type="Int32" Name="offsets" format="ascii">
          2 4 6 8 10 12 14 16 18 20 22 24 26 28 30 32 34 36 38 40 42 44 46 48 50 52 54 56 58 60 62 64 66 68 70 72 74 76 78 80 82 84 86 88 90 92 94 96 98 100 102 104 106 108 110 112 114 116 118 120 122 124 126 128 130 132 134 136 138 140 142 144 146 148 150 152 154 156 158 160 162 164 166 168 170 172 174 176 178 180 182 184 186 188 190 192 194 196 198 200 202 204 206 208 210 212 214 216 218 220 222 224 226 228 230 232 234 236 238 240 242 244 246 248 250 252 254 
        </DataArray>
        <DataArray type="Int32" Name="types" format="ascii">
          3 3 3 3 3 3 3 3 3 3 3 3 3 3 3 3 3 3 3 3 3 3 3 3 3 3 3 3 3 3 3 3 3 3 3 3 3 3 3 3 3 3 3 3 3 3 3 3 3 3 3 3 3 3 3 3 3 3 3 3 3 3 3 3 3 3 3 3 3 3 3 3 3 3 3 3 3 3 3 3 3 3 3 3 3 3 3 3 3 3 3 3 3 3 3 3 3 3 3 3 3 3 3 3 3 3 3 3 3 3 3 3 3 3 3 3 3 3 3 3 3 3 3 3 3 3 3         </DataArray>
      </Cells>
    </Piece>
  </UnstructuredGrid>
</VTKFile>
<!-- DATA


-->
