<?xml version="1.0"?>
<VTKFile type="UnstructuredGrid" version="0.1" byte_order="LittleEndian">
  <UnstructuredGrid>
    <Piece NumberOfPoints="128" NumberOfCells="127">
      <PointData Scalars="u">
        <DataArray type="Float32" Name="Y" NumberOfComponents="2">

0 0
0.17354358874497086 -0.17493183574799048
0.15792707398885625 -0.20204104314156618
0.15609722042230059 -0.20915546842615823
0.1621786919228681 -0.19908740218290522
0.17049911658628575 -0.1746412516881807
0.18070407783143061 -0.13939590222437093
0.18737992214171165 -0.095000275445310353
0.19234613164337022 -0.044274464499435708
0.1928506623195346 0.011128108738038475
0.18639325699575507 0.06801494648269249
0.17423553650173079 0.12293994808118847
0.15908530643869698 0.1743154040398488
0.13761125679438152 0.2205793442266186
0.11474675570567457 0.26155651017385095
0.08709691101533254 0.29670247455474197
0.059314370975037264 0.32794691048770791
0.029525525569310769 0.35685291532412938
-0.0047574263875401184 0.38329379006088687
-0.039416813407674625 0.41029523162153569
-0.077359507962337107 0.4392047223824625
-0.12128713227568093 0.46913744566852733
-0.16747221866707257 0.50258311296552505
-0.22012399621547674 0.53796027245210021
-0.27623474455118285 0.57729121311080045
-0.33890290372989956 0.61787457356985043
-0.40560729679158242 0.65953407777611528
-0.47451738253075204 0.70386491605692769
-0.54825542838743424 0.74705060024065417
-0.62231604616239489 0.7891999040547194
-0.69490988794728037 0.83057538465220493
-0.76592716658461502 0.86758230741463493
-0.83022343210913829 0.89966178423377396
-0.88551901724237503 0.92733873894947205
-0.93128306781522885 0.94847553033582122
-0.96419297946941407 0.96428998389360698
-0.98344709921496454 0.97383069104598341
-0.98808565654901892 0.97847816990999648
-0.97991025186874592 0.97857850466992502
-0.9579353512029406 0.97364631379759436
-0.9197663213476861 0.96142070070610208
-0.85941391226756358 0.94056234692022267
-0.78007597210014368 0.90710616091117491
-0.68488831079632151 0.8637208790936145
-0.57915208888203096 0.81264151301288434
-0.46848453903328274 0.7581025794682581
-0.36504504550818967 0.70150761876943379
-0.26095692564490025 0.65278809551193318
-0.16084587666427183 0.60805608936537114
-0.064964937998461467 0.56892670851102445
0.025879904059383275 0.53807264255091392
0.10187855455099329 0.51576345597201612
0.13667209481603057 0.49209280923368975
0.16249475275245842 0.48311103429754876
0.18283150520482239 0.48976381040804751
0.20244553637869464 0.51074349655820339
0.22167592724504068 0.5434549788815789
0.24415893133031544 0.58552135926595006
0.27311912525152271 0.63359231567041197
0.30653473420233501 0.68512903302215455
0.34599023954316227 0.73816477682475445
0.39318419231370155 0.79005136343186333
0.4462998387308445 0.83929265812481291
0.5036933436728902 0.88592250168632558
0.5662126765636919 0.92914368705818318
0.63410220049253363 0.96682994589336479
0.70646231048097585 0.99675463183622259
0.77983067991697863 1.0196991031084055
0.85476467676270729 1.0358488705683202
0.93090372076209227 1.0458501903842106
1.0079154483614643 1.0502084974399464
1.0867175677332117 1.0481607805243252
1.1655162774381622 1.0424415744067193
1.2461234776441938 1.0339047871283369
1.3295154482180807 1.0236206388277103
1.4175484632515776 1.0110952237700086
1.5102713377097585 0.99910598171134546
1.6104630817517553 0.98821422471840425
1.7201604757945759 0.97907675441064201
1.8410455107892414 0.97193241178091894
1.9743578840205196 0.96658965409970021
2.1215600590637895 0.96097332696162752
2.2828183958766486 0.95709086122443199
2.4602256633536919 0.95451948707195089
2.6548526964064694 0.95321849665270308
2.8669887772017879 0.95303728694758372
3.0966538094309821 0.95214827859984486
3.3433189883922578 0.95270259272957769
3.607611332842322 0.95543121840849432
3.8892566792708596 0.96143620940157393
4.1870784801470124 0.97226349420300373
4.4989289857838228 0.98936027150168249
4.8216446348557804 1.0145132795342178
5.1517050260681279 1.0481035635152289
5.4863849322363869 1.0931169132190908
5.8241126558081699 1.1536208830221808
6.1635944891660008 1.2329094721900016
6.5038697417419531 1.3345073725651919
6.8445055434248276 1.4622388670653637
7.1856879999576586 1.6203380963157019
7.5281527751239636 1.8135972099214566
7.8728851112965952 2.0475458467914871
8.220561059320703 2.3283688443478079
8.5709280095910323 2.6629357352005063
8.921174390325282 3.0595526342788157
9.2640437272040224 3.5272291733638164
9.583639775589301 4.0744430919850583
9.8590152473681165 4.697461821038277
10.061524869416454 5.3886140180352964
10.156804694952116 6.1301135732750405
10.109656152373452 6.8886286708441133
9.8881353862372414 7.6159023254966423
9.4722849907036757 8.2480029139613489
8.8591475418458909 8.7131658042942455
8.0689789757524757 8.9401237922400938
7.1454411925494377 8.8726329707164382
6.1551597436608798 8.4858304839878471
5.1617707065044494 7.8102976214603146
4.2330877982950916 6.9269833073383245
3.423473171673475 5.9724558894938617
2.8296449471794332 5.0887983644048287
2.1631691775218047 4.4479464225407961
1.606104021890048 3.8284609721190623
0.86431588314090602 3.1187382371877765
0.53556218555441826 2.1612099757410772
0.27088446026209378 1.1831568804745913
0.058673137066821528 0.37638679453206253
0 0

        </DataArray>
        <DataArray type="Float32" Name="W" NumberOfComponents="2">

-29.529396264451297 9.3168876396681579
-29.522753558080321 9.3126521930854125
-29.515875964442095 9.308810066286858
-29.508790296984198 9.3053669253681335
-29.501522164587254 9.3023280412187237
-29.494096533137299 9.2996976017655122
-29.48653859964071 9.2974760119322202
-29.478871922866844 9.295665357616425
-29.471120252168319 9.2942630289920007
-29.463305861854362 9.2932686883383209
-29.455450524416573 9.2926808747834375
-29.447575564944255 9.292493182615079
-29.439701115538757 9.2926969874101655
-29.431846232273379 9.2932864877639751
-29.424028502507817 9.2942497705946039
-29.416264614994105 9.2955782675728624
-29.408569036502939 9.2972572140829843
-29.400955617279426 9.2992757546068443
-29.393437152789183 9.3016229145658667
-29.386023067221565 9.3042810195174432
-29.378722971743358 9.3072374475299089
-29.371545533229085 9.3104799591338843
-29.36449514427688 9.3139898180083538
-29.357577406906405 9.3177540692504284
-29.350793704271332 9.321754521727339
-29.344147073502633 9.3259785166660834
-29.337635772877835 9.3304080093663249
-29.331255640050905 9.335024175043209
-29.325006362919307 9.3398157661254437
-29.318880583683626 9.3447640428776122
-29.312869614326981 9.349850964488013
-29.306968532865334 9.3550647760687546
-29.301165138613701 9.3603869413837373
-29.295444316723717 9.3657976218689907
-29.289796354148571 9.3712841954690962
-29.284202065302448 9.3768253961438699
-29.278648359631976 9.382407214180537
-29.273111968857631 9.3880061874423859
-29.267576792611518 9.3936063859036274
-29.262025630798924 9.399190813198425
-29.256440269034535 9.4047411649149577
-29.25080153381122 9.4102374786030207
-29.245079074028769 9.4156468386661363
-29.239252227704817 9.4209439457714872
-29.233299407053355 9.4260995323212331
-29.227201000341612 9.4310826239984138
-29.220939148813613 9.4358594019331115
-29.214508789536186 9.4404076357346138
-29.207896434012035 9.4446879778896093
-29.201093630253556 9.4486598967445268
-29.194096699657862 9.4522803979100853
-29.186907536330413 9.4555041822401282
-29.179534683045041 9.4582823898506714
-29.172006510724319 9.4606070147757357
-29.164351878925718 9.4624733037767452
-29.156599582238968 9.4638793231903335
-29.148777738035641 9.4648237214923423
-29.140914263278109 9.4653102659143542
-29.133035977878652 9.4653451208735362
-29.125168516995551 9.4649337526378741
-29.117336191622012 9.4640861680189214
-29.109561652843968 9.4628142152040038
-29.101866459394063 9.4611280908133573
-29.094270817278282 9.4590392959906104
-29.086792696074486 9.4565629105614288
-29.079448357355734 9.4537144855438484
-29.072253425656186 9.450507621256703
-29.065223635238198 9.4469535543739482
-29.058372441696509 9.4430665355121093
-29.051712122141961 9.4388610135046793
-29.045253796742699 9.4343515938921723
-29.039007451337159 9.4295529904695545
-29.032984041562003 9.4244775017736053
-29.027191577409805 9.4191400847506799
-29.021636885223661 9.4135557647893489
-29.016325555653026 9.4077396210883837
-29.011264188879871 9.4017048243354253
-29.006455922668671 9.395466624008904
-29.001902395166848 9.389040255745515
-28.997603673168122 9.382440865665199
-28.993558099475134 9.3756834762367856
-28.98976227808658 9.3687828517955527
-28.986214357728183 9.3617517106068693
-28.982907574109468 9.3546041532298645
-28.979833298468662 9.3473537150140551
-28.976981020825278 9.3400132711450237
-28.97433838562101 9.3325949395694536
-28.971895026452316 9.3251087685951397
-28.969635247887236 9.3175653065947941
-28.967541663907721 9.3099741872074144
-28.965595271337705 9.302344136364983
-28.963775078643572 9.2946831202763018
-28.962059269525966 9.2869981550076783
-28.96042495995804 9.2792955270322448
-28.95885273974535 9.2715800419014496
-28.9573184103076 9.2638569599317577
-28.955797266795194 9.2561312664177375
-28.954264185266002 9.2484078954394668
-28.95269367768125 9.2406919738364
-28.951059902397429 9.2329890878941239
-28.949336624352984 9.225305577562791
-28.947497128617169 9.217648865589954
-28.945514044499411 9.210027846081223
-28.943359957290372 9.2024531095807731
-28.94100609959105 9.1949377398652778
-28.938422941568351 9.1874977203392909
-28.935576289595435 9.1801541025330113
-28.932436750892521 9.1729304452903619
-28.928977267240555 9.1658540251299794
-28.92517347553888 9.1589561566770268
-28.921007169466407 9.1522706041960298
-28.916467238075541 9.1458325564908076
-28.911552865522175 9.1396752579972915
-28.906273845060586 9.1338273198103384
-28.90065177955189 9.1283081772461632
-28.894719198271559 9.1231241378573174
-28.888521475707488 9.1182601418241429
-28.882105852539588 9.1136874033269972
-28.875521485760999 9.1093612019194765
-28.868808602697875 9.1052372313256207
-28.861987874981807 9.1012940683895565
-28.854905170040364 9.0978427429800082
-28.847559975015333 9.0949909705688228
-28.839963275259503 9.0928996577152326
-28.832287168771064 9.0911230932156659
-28.824555930228289 9.0896057371967167
-28.816794418192444 9.0882534278979268
-28.809031329954681 9.0869122315875313

        </DataArray>
        <DataArray type="Float32" Name="u" NumberOfComponents="1">
          0 0.007874015748031496 0.015748031496062992 0.023622047244094488 0.031496062992125984 0.03937007874015748 0.047244094488188976 0.055118110236220472 0.062992125984251968 0.070866141732283464 0.07874015748031496 0.086614173228346455 0.094488188976377951 0.10236220472440945 0.11023622047244094 0.11811023622047244 0.12598425196850394 0.13385826771653545 0.14173228346456693 0.14960629921259844 0.15748031496062992 0.16535433070866143 0.17322834645669291 0.18110236220472442 0.1889763779527559 0.19685039370078741 0.20472440944881889 0.2125984251968504 0.22047244094488189 0.2283464566929134 0.23622047244094488 0.24409448818897639 0.25196850393700787 0.25984251968503935 0.26771653543307089 0.27559055118110237 0.28346456692913385 0.29133858267716534 0.29921259842519687 0.30708661417322836 0.31496062992125984 0.32283464566929132 0.33070866141732286 0.33858267716535434 0.34645669291338582 0.3543307086614173 0.36220472440944884 0.37007874015748032 0.37795275590551181 0.38582677165354329 0.39370078740157483 0.40157480314960631 0.40944881889763779 0.41732283464566927 0.42519685039370081 0.43307086614173229 0.44094488188976377 0.44881889763779526 0.45669291338582679 0.46456692913385828 0.47244094488188976 0.48031496062992124 0.48818897637795278 0.49606299212598426 0.50393700787401574 0.51181102362204722 0.51968503937007871 0.52755905511811019 0.53543307086614178 0.54330708661417326 0.55118110236220474 0.55905511811023623 0.56692913385826771 0.57480314960629919 0.58267716535433067 0.59055118110236215 0.59842519685039375 0.60629921259842523 0.61417322834645671 0.62204724409448819 0.62992125984251968 0.63779527559055116 0.64566929133858264 0.65354330708661412 0.66141732283464572 0.6692913385826772 0.67716535433070868 0.68503937007874016 0.69291338582677164 0.70078740157480313 0.70866141732283461 0.71653543307086609 0.72440944881889768 0.73228346456692917 0.74015748031496065 0.74803149606299213 0.75590551181102361 0.76377952755905509 0.77165354330708658 0.77952755905511806 0.78740157480314965 0.79527559055118113 0.80314960629921262 0.8110236220472441 0.81889763779527558 0.82677165354330706 0.83464566929133854 0.84251968503937003 0.85039370078740162 0.8582677165354331 0.86614173228346458 0.87401574803149606 0.88188976377952755 0.88976377952755903 0.89763779527559051 0.90551181102362199 0.91338582677165359 0.92125984251968507 0.92913385826771655 0.93700787401574803 0.94488188976377951 0.952755905511811 0.96062992125984248 0.96850393700787396 0.97637795275590555 0.98425196850393704 0.99212598425196852 1
        </DataArray>
      </PointData>
      <CellData Scalars="P">
        <DataArray type="Float32" Name="P" NumberOfComponents="1">
          0.035182888015895836 0.3527815825342262 0.85340504086617097 1.4924699262163095 2.2333260529780663 3.0386187674320428 3.8952938568083546 4.7750376885148542 5.6756166448937666 6.5811978049634554 7.4602628455354827 8.2964131692492344 9.0951129663091024 9.8372780949326675 10.535957619569116 11.181011651453748 11.795054430039823 12.387420631901147 12.948172088546688 13.501345720558817 14.05473346593678 14.592406467232584 15.131819014710787 15.658114673542798 16.184380812324051 16.687870765908134 17.161021190374647 17.622652808005039 18.040872381395751 18.4115274489121 18.748323954694392 19.025711322655567 19.241225157229707 19.415656082129775 19.539913995876212 19.635852750085537 19.709676970497505 19.78177949752337 19.865597953527654 19.978415785512418 20.145332673343052 20.425317106272974 20.825421151372428 21.366169608126054 22.046734659091388 22.851583855609217 23.697331241111794 24.640287602785065 25.668571439603923 26.763348818178684 27.89137382537367 28.963637454882758 29.892777933189699 30.668841787628057 31.302705537889569 31.819159631466114 32.232368445486934 32.564598967546196 32.841202400388156 33.071265198476588 33.267038866777369 33.444497539332062 33.607839573538158 33.75399332379434 33.889020280771895 34.027135810159194 34.179390825583269 34.340783030758459 34.507172656803888 34.675189110618277 34.842803869859686 35.010195693150315 35.164232827975944 35.295430354954405 35.396822289634045 35.463622071612591 35.481839495987451 35.441458398949372 35.33617596950323 35.16364480552253 34.925766218263234 34.623152686052649 34.258076431144424 33.834504212742964 33.3616259044163 32.853343774457272 32.31493454322672 31.76908190681425 31.232752712654921 30.726569532658122 30.275750758809824 29.90212569674177 29.627658336655127 29.447178967020044 29.394900412363331 29.482118523885717 29.719337158225159 30.117327079012444 30.688894838969599 31.45113416283338 32.427771897128608 33.651448838801358 35.158122929582746 37.001672833474856 39.233903968345899 41.936405634952457 45.060352645578782 48.525526226711264 52.17614684920273 55.727904978431617 58.796517221042208 60.904464882724469 61.580011929286187 60.462061836392671 57.449809791849987 52.894058645367437 47.474354650971001 42.165432805520531 37.645067234122223 33.938132102310888 26.213442264622319 18.872154409680839 10.366981571061295 5.9898427820519364 2.098806839463951 -0.1054479425032043 -0.037332057672088921
        </DataArray>
      </CellData>
      <Points>
        <DataArray type="Float32" NumberOfComponents="3" format="ascii">
          -29.529396264451297 9.3168876396681579 0
          -29.522753558080321 9.3126521930854125 0
          -29.515875964442095 9.308810066286858 0
          -29.508790296984198 9.3053669253681335 0
          -29.501522164587254 9.3023280412187237 0
          -29.494096533137299 9.2996976017655122 0
          -29.48653859964071 9.2974760119322202 0
          -29.478871922866844 9.295665357616425 0
          -29.471120252168319 9.2942630289920007 0
          -29.463305861854362 9.2932686883383209 0
          -29.455450524416573 9.2926808747834375 0
          -29.447575564944255 9.292493182615079 0
          -29.439701115538757 9.2926969874101655 0
          -29.431846232273379 9.2932864877639751 0
          -29.424028502507817 9.2942497705946039 0
          -29.416264614994105 9.2955782675728624 0
          -29.408569036502939 9.2972572140829843 0
          -29.400955617279426 9.2992757546068443 0
          -29.393437152789183 9.3016229145658667 0
          -29.386023067221565 9.3042810195174432 0
          -29.378722971743358 9.3072374475299089 0
          -29.371545533229085 9.3104799591338843 0
          -29.36449514427688 9.3139898180083538 0
          -29.357577406906405 9.3177540692504284 0
          -29.350793704271332 9.321754521727339 0
          -29.344147073502633 9.3259785166660834 0
          -29.337635772877835 9.3304080093663249 0
          -29.331255640050905 9.335024175043209 0
          -29.325006362919307 9.3398157661254437 0
          -29.318880583683626 9.3447640428776122 0
          -29.312869614326981 9.349850964488013 0
          -29.306968532865334 9.3550647760687546 0
          -29.301165138613701 9.3603869413837373 0
          -29.295444316723717 9.3657976218689907 0
          -29.289796354148571 9.3712841954690962 0
          -29.284202065302448 9.3768253961438699 0
          -29.278648359631976 9.382407214180537 0
          -29.273111968857631 9.3880061874423859 0
          -29.267576792611518 9.3936063859036274 0
          -29.262025630798924 9.399190813198425 0
          -29.256440269034535 9.4047411649149577 0
          -29.25080153381122 9.4102374786030207 0
          -29.245079074028769 9.4156468386661363 0
          -29.239252227704817 9.4209439457714872 0
          -29.233299407053355 9.4260995323212331 0
          -29.227201000341612 9.4310826239984138 0
          -29.220939148813613 9.4358594019331115 0
          -29.214508789536186 9.4404076357346138 0
          -29.207896434012035 9.4446879778896093 0
          -29.201093630253556 9.4486598967445268 0
          -29.194096699657862 9.4522803979100853 0
          -29.186907536330413 9.4555041822401282 0
          -29.179534683045041 9.4582823898506714 0
          -29.172006510724319 9.4606070147757357 0
          -29.164351878925718 9.4624733037767452 0
          -29.156599582238968 9.4638793231903335 0
          -29.148777738035641 9.4648237214923423 0
          -29.140914263278109 9.4653102659143542 0
          -29.133035977878652 9.4653451208735362 0
          -29.125168516995551 9.4649337526378741 0
          -29.117336191622012 9.4640861680189214 0
          -29.109561652843968 9.4628142152040038 0
          -29.101866459394063 9.4611280908133573 0
          -29.094270817278282 9.4590392959906104 0
          -29.086792696074486 9.4565629105614288 0
          -29.079448357355734 9.4537144855438484 0
          -29.072253425656186 9.450507621256703 0
          -29.065223635238198 9.4469535543739482 0
          -29.058372441696509 9.4430665355121093 0
          -29.051712122141961 9.4388610135046793 0
          -29.045253796742699 9.4343515938921723 0
          -29.039007451337159 9.4295529904695545 0
          -29.032984041562003 9.4244775017736053 0
          -29.027191577409805 9.4191400847506799 0
          -29.021636885223661 9.4135557647893489 0
          -29.016325555653026 9.4077396210883837 0
          -29.011264188879871 9.4017048243354253 0
          -29.006455922668671 9.395466624008904 0
          -29.001902395166848 9.389040255745515 0
          -28.997603673168122 9.382440865665199 0
          -28.993558099475134 9.3756834762367856 0
          -28.98976227808658 9.3687828517955527 0
          -28.986214357728183 9.3617517106068693 0
          -28.982907574109468 9.3546041532298645 0
          -28.979833298468662 9.3473537150140551 0
          -28.976981020825278 9.3400132711450237 0
          -28.97433838562101 9.3325949395694536 0
          -28.971895026452316 9.3251087685951397 0
          -28.969635247887236 9.3175653065947941 0
          -28.967541663907721 9.3099741872074144 0
          -28.965595271337705 9.302344136364983 0
          -28.963775078643572 9.2946831202763018 0
          -28.962059269525966 9.2869981550076783 0
          -28.96042495995804 9.2792955270322448 0
          -28.95885273974535 9.2715800419014496 0
          -28.9573184103076 9.2638569599317577 0
          -28.955797266795194 9.2561312664177375 0
          -28.954264185266002 9.2484078954394668 0
          -28.95269367768125 9.2406919738364 0
          -28.951059902397429 9.2329890878941239 0
          -28.949336624352984 9.225305577562791 0
          -28.947497128617169 9.217648865589954 0
          -28.945514044499411 9.210027846081223 0
          -28.943359957290372 9.2024531095807731 0
          -28.94100609959105 9.1949377398652778 0
          -28.938422941568351 9.1874977203392909 0
          -28.935576289595435 9.1801541025330113 0
          -28.932436750892521 9.1729304452903619 0
          -28.928977267240555 9.1658540251299794 0
          -28.92517347553888 9.1589561566770268 0
          -28.921007169466407 9.1522706041960298 0
          -28.916467238075541 9.1458325564908076 0
          -28.911552865522175 9.1396752579972915 0
          -28.906273845060586 9.1338273198103384 0
          -28.90065177955189 9.1283081772461632 0
          -28.894719198271559 9.1231241378573174 0
          -28.888521475707488 9.1182601418241429 0
          -28.882105852539588 9.1136874033269972 0
          -28.875521485760999 9.1093612019194765 0
          -28.868808602697875 9.1052372313256207 0
          -28.861987874981807 9.1012940683895565 0
          -28.854905170040364 9.0978427429800082 0
          -28.847559975015333 9.0949909705688228 0
          -28.839963275259503 9.0928996577152326 0
          -28.832287168771064 9.0911230932156659 0
          -28.824555930228289 9.0896057371967167 0
          -28.816794418192444 9.0882534278979268 0
          -28.809031329954681 9.0869122315875313 0
        </DataArray>
      </Points>
      <Cells>
        <DataArray type="Int32" Name="connectivity" format="ascii">
          0 1 1 2 2 3 3 4 4 5 5 6 6 7 7 8 8 9 9 10 10 11 11 12 12 13 13 14 14 15 15 16 16 17 17 18 18 19 19 20 20 21 21 22 22 23 23 24 24 25 25 26 26 27 27 28 28 29 29 30 30 31 31 32 32 33 33 34 34 35 35 36 36 37 37 38 38 39 39 40 40 41 41 42 42 43 43 44 44 45 45 46 46 47 47 48 48 49 49 50 50 51 51 52 52 53 53 54 54 55 55 56 56 57 57 58 58 59 59 60 60 61 61 62 62 63 63 64 64 65 65 66 66 67 67 68 68 69 69 70 70 71 71 72 72 73 73 74 74 75 75 76 76 77 77 78 78 79 79 80 80 81 81 82 82 83 83 84 84 85 85 86 86 87 87 88 88 89 89 90 90 91 91 92 92 93 93 94 94 95 95 96 96 97 97 98 98 99 99 100 100 101 101 102 102 103 103 104 104 105 105 106 106 107 107 108 108 109 109 110 110 111 111 112 112 113 113 114 114 115 115 116 116 117 117 118 118 119 119 120 120 121 121 122 122 123 123 124 124 125 125 126 126 127 
        </DataArray>
        <DataArray type="Int32" Name="offsets" format="ascii">
          2 4 6 8 10 12 14 16 18 20 22 24 26 28 30 32 34 36 38 40 42 44 46 48 50 52 54 56 58 60 62 64 66 68 70 72 74 76 78 80 82 84 86 88 90 92 94 96 98 100 102 104 106 108 110 112 114 116 118 120 122 124 126 128 130 132 134 136 138 140 142 144 146 148 150 152 154 156 158 160 162 164 166 168 170 172 174 176 178 180 182 184 186 188 190 192 194 196 198 200 202 204 206 208 210 212 214 216 218 220 222 224 226 228 230 232 234 236 238 240 242 244 246 248 250 252 254 
        </DataArray>
        <DataArray type="Int32" Name="types" format="ascii">
          3 3 3 3 3 3 3 3 3 3 3 3 3 3 3 3 3 3 3 3 3 3 3 3 3 3 3 3 3 3 3 3 3 3 3 3 3 3 3 3 3 3 3 3 3 3 3 3 3 3 3 3 3 3 3 3 3 3 3 3 3 3 3 3 3 3 3 3 3 3 3 3 3 3 3 3 3 3 3 3 3 3 3 3 3 3 3 3 3 3 3 3 3 3 3 3 3 3 3 3 3 3 3 3 3 3 3 3 3 3 3 3 3 3 3 3 3 3 3 3 3 3 3 3 3 3 3         </DataArray>
      </Cells>
    </Piece>
  </UnstructuredGrid>
</VTKFile>
<!-- DATA


-->
