<?xml version="1.0"?>
<VTKFile type="UnstructuredGrid" version="0.1" byte_order="LittleEndian">
  <UnstructuredGrid>
    <Piece NumberOfPoints="128" NumberOfCells="127">
      <PointData Scalars="u">
        <DataArray type="Float32" Name="Y" NumberOfComponents="2">

0 0
0.010056482812345491 -0.010625933068151511
0.014765894906400109 -0.035442750153114579
0.023742027316498385 -0.068659397605088338
0.035805740488865562 -0.10752115361045375
0.049373194454787751 -0.14957787131391428
0.062668744774985199 -0.19260310936089881
0.073928602300370294 -0.23450170995750863
0.081592997704791309 -0.27322641615177501
0.084483803125441737 -0.30672317422716067
0.081961639555006599 -0.33292133685650882
0.074052373780319078 -0.34977905684596694
0.061529066433340371 -0.35538588213347416
0.045933614923326337 -0.34811450686132572
0.029524120257097056 -0.32680302825819962
0.015140301017394947 -0.29093979501967993
0.0059898635762523659 -0.24081727225997729
0.0053720393276395799 -0.17762134622089007
0.016367754165963568 -0.10342927340431944
0.041535752979549985 -0.021102630865837701
0.082657473986634519 0.065921014138141276
0.14056888880003468 0.15391598178002655
0.21510521822407849 0.23919956840427561
0.30516675734382814 0.3184622540789307
0.40889478160230319 0.38905382289838369
0.52392979545237273 0.44919137064456005
0.64771355255593699 0.49807032542350077
0.77779298613711867 0.53587717367446885
0.91208814744636879 0.56371882017052199
1.0490955155593977 0.58349542768887919
1.1880097286910112 0.59774953433891087
1.3287579165933305 0.6095240314294077
1.4719490312228818 0.62225611329941588
1.6187445774497988 0.6397250534286788
1.7706568275156636 0.66606005017936531
1.9292769480655387 0.70580139991707147
2.0959303883842324 0.76399424609857047
2.271253041048352 0.84627901246147375
2.4546824084468746 0.95892625369600848
2.6438671089375578 1.1087467402881084
2.8340194847468414 1.3027926328835517
3.017272987196058 1.5477579992145361
3.1821589621077173 1.8489957518159694
3.313381474491583 2.2091057586725493
3.392129785804995 2.6261286254147507
3.3971998327948021 3.0915094888510111
3.307160961491773 3.588169034859197
3.103661689443673 4.089200968312265
2.7756943659564026 4.5578381719776804
2.324254501617014 4.9492986848465748
1.766428979137612 5.2148475725306476
1.2934726967621739 5.2667800545898125
1.0355827516399643 5.1396147055603585
0.7850961697942026 4.9081240993901138
0.55714230405333331 4.5877915667593401
0.3619212825212002 4.1942029914694237
0.20508678278304923 3.7423912352266395
0.088333806522196343 3.2463114913651046
0.010098811507012091 2.7184945476769729
-0.033705967348203282 2.1698846582227951
-0.048982216139314076 1.6098414383696207
-0.042796579498055494 1.0462698334091325
-0.022811912752476741 0.48583632612854077
0.0031964767385984027 -0.065769733280940199
0.027743984666445839 -0.60356610129832278
0.043968192519575316 -1.1230287073226408
0.045898425393090185 -1.6198863392226084
0.028671333917446373 -2.0899743048947497
-0.011302810661920909 -2.5291556267384068
-0.076222076958305671 -2.9333119436183308
-0.16682521441431947 -3.2984003210899311
-0.28237845707996051 -3.6205666678373669
-0.42072118148126347 -3.8963016238345163
-0.57837330584996893 -4.1226209597397396
-0.75070413486690146 -4.2972501218021639
-0.93215792384581275 -4.418791964039448
-1.1165264342066161 -4.4868581813930932
-1.2972539929097335 -4.502148503392049
-1.4677568746452099 -4.4664670359911902
-1.6217368711607576 -4.3826716653193651
-1.7534690946072757 -4.2545593614529009
-1.8580464220361499 -4.0866966612498175
-1.9315672056916573 -3.8842097594087908
-1.9712583336907084 -3.6525519068462429
-1.9755316514913399 -3.3972669249079206
-1.9439773465806021 -3.1237666531422792
-1.8773024920208727 -2.83713740755671
-1.7772260915088338 -2.5419865876103187
-1.6463434927272009 -2.2423360643656611
-1.4879730138408269 -1.9415645055482229
-1.3059963345993311 -1.6423968209563198
-1.1047020292879994 -1.3469357528880657
-0.88863899335134189 -1.0567284244105111
-0.66248383545878331 -0.77285937867431453
-0.43092389064945619 -0.49606117573438147
-0.19855558004065507 -0.22683378156939882
0.03020348401961262 0.03443540026557021
0.25119094299814382 0.28735810784513399
0.46056708757564657 0.5314446161253229
0.65487521427555861 0.766021032831259
0.83109620026771358 0.99016842567600305
0.98669758088837234 1.2026865350369063
1.1196763788008866 1.4020836207724592
1.2285939833574173 1.5865927549800463
1.3126006495287763 1.7542136150774126
1.3714467886710213 1.9027775888447276
1.4054782386955871 2.0300328339662905
1.4156131638406946 2.1337449225689622
1.4032991376608368 2.2118079361557514
1.3704502458463819 2.2623604480753547
1.3193656075132585 2.2839008028414232
1.2526324157917874 2.2753965011784079
1.1730182809556207 2.2363833017452377
1.0833591591788669 2.1670507719925292
0.98645031222317447 2.0683123268898109
0.88494843840734394 1.9418591084571799
0.78129323816734608 1.790198187601995
0.67765614892021797 1.6166763292262805
0.57592274130046595 1.4254908118564342
0.47771325000002463 1.2216884738476916
0.38444285940617551 1.0111533147992313
0.29741961398213407 0.80058179193531842
0.21797314561412573 0.59744372762166364
0.1476018431371372 0.4099259101343895
0.088119805664156253 0.24685549807189841
0.041778299990604909 0.11760163275047218
0.011330109910863632 0.03195638407585992
0 0

        </DataArray>
        <DataArray type="Float32" Name="W" NumberOfComponents="2">

-1.9862658566815232 0.87564086489676363
-1.978647635883614 0.87763162733894018
-1.9710867191367349 0.87983000180323079
-1.9635714494846301 0.88217967126561847
-1.9560862208270442 0.88462333957112016
-1.9486128810260703 0.88710312219317899
-1.9411322484692703 0.88956081681364374
-1.9336256788599135 0.89193811902922648
-1.9260766210224305 0.89417685415300374
-1.9184721004108107 0.89621929352353447
-1.9108040671246052 0.89800861312776159
-1.9030705428692036 0.89948953437240986
-1.8952765004542056 0.90060916279567593
-1.8874344124173448 0.90131801239902687
-1.8795644142830479 0.90157117383542229
-1.871694044137143 0.90132955725913699
-1.8638575437112637 0.90056111884329959
-1.8560947356151118 0.89924196718230076
-1.848449523869071 0.89735724453562671
-1.8409680965343489 0.89490168922131474
-1.8336969356675097 0.89187980871306316
-1.8266807571151098 0.88830562558369974
-1.8199605080940657 0.88420199633665575
-1.8135715431195747 0.8795995415382537
-1.8075420796409203 0.87453525971063995
-1.8018920064558199 0.86905092323144617
-1.7966320845095345 0.86319136953844466
-1.7917635454123688 0.85700280451663846
-1.7872780620163469 0.85053122796247715
-1.7831580409088454 0.84382107566118059
-1.7793771707460972 0.83691415179461548
-1.775901153737683 0.82984890218494611
-1.7726885499625913 0.82266005598597347
-1.7696916743724183 0.81537864285985107
-1.7668575026356357 0.80803237551694262
-1.7641285625026508 0.80064637390024518
-1.7614438102150887 0.79324419654320177
-1.758739514798108 0.78584913529060163
-1.7559501950239973 0.77848571972429992
-1.7530096724179012 0.77118136514177138
-1.7498523164773845 0.76396808080679768
-1.7464145622099372 0.75688413207894945
-1.7426367712541684 0.74997552089427655
-1.738465481677455 0.74329711604680138
-1.7338560435039947 0.73691323306997436
-1.7287755641099354 0.73089744240423471
-1.7232059907344068 0.72533138708581002
-1.7171470444044625 0.72030243303494457
-1.710618608326897 0.71590007052546289
-1.7036620928091459 0.71221114128641472
-1.6963402840627151 0.70931417295181354
-1.688735270032099 0.70727332996685022
-1.6810500679542308 0.70555903580676482
-1.6733006673447175 0.70416340493018736
-1.6655025984440712 0.70307208359536377
-1.6576699942116755 0.70226520991620001
-1.6498149579507471 0.70171838025358269
-1.6419472128242074 0.70140358129517411
-1.6340739968122828 0.70129005529713406
-1.6262001596981777 0.7013450769934394
-1.61832841655036 0.70153463212522027
-1.6104597136610022 0.70182399771221771
-1.6025936667046088 0.70217823212873776
-1.5947290358551847 0.70256258839269647
-1.5868642078701773 0.70294286687321172
-1.578997660147025 0.7032857241606324
-1.5711283862017082 0.70355895353454012
-1.5632562658577205 0.70373174976030595
-1.5553823667799691 0.70377496728780975
-1.547509167043436 0.70366137673846074
-1.5396406914178766 0.70336592024441358
-1.5317825571731223 0.70286596211717334
-1.523941928586066 0.70214152781283246
-1.5161273829793691 0.7011755215275931
-1.5083486949500584 0.69995391123726047
-1.5006165492560894 0.69846586973720071
-1.4929421963459877 0.69670386128162309
-1.485337067430559 0.69466366567172622
-1.4778123680113369 0.69234433488140712
-1.4703786696687411 0.68974808120649145
-1.4630455195526941 0.68688010007414779
-1.4558210854209288 0.68374833462389983
-1.4487118513817823 0.68036319257106714
-1.4417223759804014 0.67673722836813921
-1.4348551202586144 0.67288480508678794
-1.4281103492866192 0.66882175068409799
-1.421486106755967 0.66456502245262727
-1.4149782588228534 0.66013239165503201
-1.4085806006936215 0.65554215785446235
-1.4022850175451413 0.65081289955115373
-1.3960816902699986 0.64596326470122023
-1.3899593361499605 0.64101180177189232
-1.3839054747561732 0.63597682937422484
-1.3779067099881823 0.63087634034675
-1.3719490200299183 0.6257279345210115
-1.3660180479694894 0.62054877331131064
-1.3600993867812394 0.61535554872589682
-1.3541788532208174 0.61016445935702301
-1.3482427458939317 0.60499118631723181
-1.3422780833205057 0.59985086288391753
-1.3362728182522998 0.59475803272413474
-1.3302160248604533 0.58972659292527552
-1.3240980557501449 0.58476971958164747
-1.3179106661468798 0.5798997753074161
-1.311647103091734 0.57512819968614282
-1.3053021581264477 0.57046538524828461
-1.2988721827681515 0.56592054301345796
-1.2923550670668422 0.5615015628715353
-1.2857501826777333 0.55721487504294809
-1.2790582931093477 0.55306531950651405
-1.2722814350470759 0.54905603058610386
-1.2654227758040626 0.54518834384379899
-1.2584864529111544 0.54146173206166492
-1.2514774025209143 0.53787377645658174
-1.2444011835744093 0.53442017843231804
-1.2372638044915176 0.53109481621117793
-1.2300715584528312 0.52788984968560548
-1.2228308721362096 0.5247958758580652
-1.2155481710864571 0.52180213634242467
-1.2082297628095322 0.51889677759745734
-1.2008817363182804 0.51606716383316675
-1.1935098743918597 0.51330024182110778
-1.1861195724782807 0.51058295607702642
-1.1787157562588346 0.50790271199207937
-1.1713027887498022 0.50524788341592886
-1.1638843578302629 0.50260835994285891
-1.156463336665605 0.49997612780096545
-1.1490416130370651 0.49734587696313642

        </DataArray>
        <DataArray type="Float32" Name="u" NumberOfComponents="1">
          0 0.007874015748031496 0.015748031496062992 0.023622047244094488 0.031496062992125984 0.03937007874015748 0.047244094488188976 0.055118110236220472 0.062992125984251968 0.070866141732283464 0.07874015748031496 0.086614173228346455 0.094488188976377951 0.10236220472440945 0.11023622047244094 0.11811023622047244 0.12598425196850394 0.13385826771653545 0.14173228346456693 0.14960629921259844 0.15748031496062992 0.16535433070866143 0.17322834645669291 0.18110236220472442 0.1889763779527559 0.19685039370078741 0.20472440944881889 0.2125984251968504 0.22047244094488189 0.2283464566929134 0.23622047244094488 0.24409448818897639 0.25196850393700787 0.25984251968503935 0.26771653543307089 0.27559055118110237 0.28346456692913385 0.29133858267716534 0.29921259842519687 0.30708661417322836 0.31496062992125984 0.32283464566929132 0.33070866141732286 0.33858267716535434 0.34645669291338582 0.3543307086614173 0.36220472440944884 0.37007874015748032 0.37795275590551181 0.38582677165354329 0.39370078740157483 0.40157480314960631 0.40944881889763779 0.41732283464566927 0.42519685039370081 0.43307086614173229 0.44094488188976377 0.44881889763779526 0.45669291338582679 0.46456692913385828 0.47244094488188976 0.48031496062992124 0.48818897637795278 0.49606299212598426 0.50393700787401574 0.51181102362204722 0.51968503937007871 0.52755905511811019 0.53543307086614178 0.54330708661417326 0.55118110236220474 0.55905511811023623 0.56692913385826771 0.57480314960629919 0.58267716535433067 0.59055118110236215 0.59842519685039375 0.60629921259842523 0.61417322834645671 0.62204724409448819 0.62992125984251968 0.63779527559055116 0.64566929133858264 0.65354330708661412 0.66141732283464572 0.6692913385826772 0.67716535433070868 0.68503937007874016 0.69291338582677164 0.70078740157480313 0.70866141732283461 0.71653543307086609 0.72440944881889768 0.73228346456692917 0.74015748031496065 0.74803149606299213 0.75590551181102361 0.76377952755905509 0.77165354330708658 0.77952755905511806 0.78740157480314965 0.79527559055118113 0.80314960629921262 0.8110236220472441 0.81889763779527558 0.82677165354330706 0.83464566929133854 0.84251968503937003 0.85039370078740162 0.8582677165354331 0.86614173228346458 0.87401574803149606 0.88188976377952755 0.88976377952755903 0.89763779527559051 0.90551181102362199 0.91338582677165359 0.92125984251968507 0.92913385826771655 0.93700787401574803 0.94488188976377951 0.952755905511811 0.96062992125984248 0.96850393700787396 0.97637795275590555 0.98425196850393704 0.99212598425196852 1
        </DataArray>
      </PointData>
      <CellData Scalars="P">
        <DataArray type="Float32" Name="P" NumberOfComponents="1">
          0.0038145985905248966 -0.039635632266545415 -0.098772268954000181 -0.1458259877993702 -0.16122827154131633 -0.1338459197562267 -0.060857338820740854 0.052733762791232784 0.19494140407611596 0.34798106548427554 0.48976386914525721 0.59565002268476541 0.64038280932321379 0.60009343880644572 0.45423858644868209 0.18731391251187351 -0.20981450888019432 -0.7390981883693043 -1.3951072497856725 -2.1654753222726679 -3.0319457873620794 -3.9719042945596379 -4.9602224137366298 -5.9711993775169461 -6.9803784933203188 -7.9660323067705159 -8.9101516269774379 -9.7988305090953229 -10.622003452598658 -11.372554451989229 -12.044874501678093 -12.632992215938661 -13.128442012730735 -13.518068925483151 -13.782002932058097 -13.892072868058673 -13.810972644249853 -13.492538680755102 -12.883538968583659 -11.927394119607861 -10.570221817397936 -8.7694800517716462 -6.5052355859517625 -3.7936583211255805 -0.70171627263237901 2.6387538897670413 6.020288325049008 9.1557396475893427 11.684526875443829 13.192157035177418 13.244241456860854 12.609903156974289 11.472498114495458 9.9771660497572725 8.2668019110717381 6.4734238552499379 4.712662445049161 3.0807148856158939 1.6531757456254561 0.48522527113647301 -0.38726397907532539 -0.94605438315813117 -1.188568784168186 -1.1257971413417356 -0.78019727048504262 -0.18364762464249745 0.62452895775368267 1.5994751457765548 2.6926569657811124 3.8536822403888866 5.0320821236906905 6.1790429339525517 7.249058388649666 8.2014567550640507 9.0017462685177971 9.6227176843693538 10.045246293157428 10.258747241748187 10.261256454736952 10.059132666805958 9.6664011672993038 9.1037836880304486 8.3974785707372988 7.5777687811632708 6.6775413534758981 5.7308004074077479 4.7712479212973236 3.8309936246481211 2.9394397166697885 2.1223696603886397 1.4012548075013351 0.79277937518012909 0.30857407675836429 -0.04485826416796531 -0.26604571621079254 -0.35830085835428854 -0.32934656735780782 -0.19083397745375041 0.042229348073394651 0.35212479068009434 0.71912655974641526 1.1222494133147087 1.5400249843654361 1.9512900662391823 2.3359681403559955 2.6758229912558238 2.9551607917667657 3.1614549135617476 3.2858662654358528 3.323631481778226 3.2742920213422271 3.1417393923050785 2.9340554764470927 2.6631324932911515 2.3440648107565423 1.9943149850547814 1.6326696524078863 1.2780178640669277 0.94800581832802899 0.65764814604217436 0.41800684944548683 0.23508358766881562 0.10910666154158938 0.034426223028071211 0.00025310177261740868 -0.0075208219248253739 -0.0032102060868337092
        </DataArray>
      </CellData>
      <Points>
        <DataArray type="Float32" NumberOfComponents="3" format="ascii">
          -1.9862658566815232 0.87564086489676363 0
          -1.978647635883614 0.87763162733894018 0
          -1.9710867191367349 0.87983000180323079 0
          -1.9635714494846301 0.88217967126561847 0
          -1.9560862208270442 0.88462333957112016 0
          -1.9486128810260703 0.88710312219317899 0
          -1.9411322484692703 0.88956081681364374 0
          -1.9336256788599135 0.89193811902922648 0
          -1.9260766210224305 0.89417685415300374 0
          -1.9184721004108107 0.89621929352353447 0
          -1.9108040671246052 0.89800861312776159 0
          -1.9030705428692036 0.89948953437240986 0
          -1.8952765004542056 0.90060916279567593 0
          -1.8874344124173448 0.90131801239902687 0
          -1.8795644142830479 0.90157117383542229 0
          -1.871694044137143 0.90132955725913699 0
          -1.8638575437112637 0.90056111884329959 0
          -1.8560947356151118 0.89924196718230076 0
          -1.848449523869071 0.89735724453562671 0
          -1.8409680965343489 0.89490168922131474 0
          -1.8336969356675097 0.89187980871306316 0
          -1.8266807571151098 0.88830562558369974 0
          -1.8199605080940657 0.88420199633665575 0
          -1.8135715431195747 0.8795995415382537 0
          -1.8075420796409203 0.87453525971063995 0
          -1.8018920064558199 0.86905092323144617 0
          -1.7966320845095345 0.86319136953844466 0
          -1.7917635454123688 0.85700280451663846 0
          -1.7872780620163469 0.85053122796247715 0
          -1.7831580409088454 0.84382107566118059 0
          -1.7793771707460972 0.83691415179461548 0
          -1.775901153737683 0.82984890218494611 0
          -1.7726885499625913 0.82266005598597347 0
          -1.7696916743724183 0.81537864285985107 0
          -1.7668575026356357 0.80803237551694262 0
          -1.7641285625026508 0.80064637390024518 0
          -1.7614438102150887 0.79324419654320177 0
          -1.758739514798108 0.78584913529060163 0
          -1.7559501950239973 0.77848571972429992 0
          -1.7530096724179012 0.77118136514177138 0
          -1.7498523164773845 0.76396808080679768 0
          -1.7464145622099372 0.75688413207894945 0
          -1.7426367712541684 0.74997552089427655 0
          -1.738465481677455 0.74329711604680138 0
          -1.7338560435039947 0.73691323306997436 0
          -1.7287755641099354 0.73089744240423471 0
          -1.7232059907344068 0.72533138708581002 0
          -1.7171470444044625 0.72030243303494457 0
          -1.710618608326897 0.71590007052546289 0
          -1.7036620928091459 0.71221114128641472 0
          -1.6963402840627151 0.70931417295181354 0
          -1.688735270032099 0.70727332996685022 0
          -1.6810500679542308 0.70555903580676482 0
          -1.6733006673447175 0.70416340493018736 0
          -1.6655025984440712 0.70307208359536377 0
          -1.6576699942116755 0.70226520991620001 0
          -1.6498149579507471 0.70171838025358269 0
          -1.6419472128242074 0.70140358129517411 0
          -1.6340739968122828 0.70129005529713406 0
          -1.6262001596981777 0.7013450769934394 0
          -1.61832841655036 0.70153463212522027 0
          -1.6104597136610022 0.70182399771221771 0
          -1.6025936667046088 0.70217823212873776 0
          -1.5947290358551847 0.70256258839269647 0
          -1.5868642078701773 0.70294286687321172 0
          -1.578997660147025 0.7032857241606324 0
          -1.5711283862017082 0.70355895353454012 0
          -1.5632562658577205 0.70373174976030595 0
          -1.5553823667799691 0.70377496728780975 0
          -1.547509167043436 0.70366137673846074 0
          -1.5396406914178766 0.70336592024441358 0
          -1.5317825571731223 0.70286596211717334 0
          -1.523941928586066 0.70214152781283246 0
          -1.5161273829793691 0.7011755215275931 0
          -1.5083486949500584 0.69995391123726047 0
          -1.5006165492560894 0.69846586973720071 0
          -1.4929421963459877 0.69670386128162309 0
          -1.485337067430559 0.69466366567172622 0
          -1.4778123680113369 0.69234433488140712 0
          -1.4703786696687411 0.68974808120649145 0
          -1.4630455195526941 0.68688010007414779 0
          -1.4558210854209288 0.68374833462389983 0
          -1.4487118513817823 0.68036319257106714 0
          -1.4417223759804014 0.67673722836813921 0
          -1.4348551202586144 0.67288480508678794 0
          -1.4281103492866192 0.66882175068409799 0
          -1.421486106755967 0.66456502245262727 0
          -1.4149782588228534 0.66013239165503201 0
          -1.4085806006936215 0.65554215785446235 0
          -1.4022850175451413 0.65081289955115373 0
          -1.3960816902699986 0.64596326470122023 0
          -1.3899593361499605 0.64101180177189232 0
          -1.3839054747561732 0.63597682937422484 0
          -1.3779067099881823 0.63087634034675 0
          -1.3719490200299183 0.6257279345210115 0
          -1.3660180479694894 0.62054877331131064 0
          -1.3600993867812394 0.61535554872589682 0
          -1.3541788532208174 0.61016445935702301 0
          -1.3482427458939317 0.60499118631723181 0
          -1.3422780833205057 0.59985086288391753 0
          -1.3362728182522998 0.59475803272413474 0
          -1.3302160248604533 0.58972659292527552 0
          -1.3240980557501449 0.58476971958164747 0
          -1.3179106661468798 0.5798997753074161 0
          -1.311647103091734 0.57512819968614282 0
          -1.3053021581264477 0.57046538524828461 0
          -1.2988721827681515 0.56592054301345796 0
          -1.2923550670668422 0.5615015628715353 0
          -1.2857501826777333 0.55721487504294809 0
          -1.2790582931093477 0.55306531950651405 0
          -1.2722814350470759 0.54905603058610386 0
          -1.2654227758040626 0.54518834384379899 0
          -1.2584864529111544 0.54146173206166492 0
          -1.2514774025209143 0.53787377645658174 0
          -1.2444011835744093 0.53442017843231804 0
          -1.2372638044915176 0.53109481621117793 0
          -1.2300715584528312 0.52788984968560548 0
          -1.2228308721362096 0.5247958758580652 0
          -1.2155481710864571 0.52180213634242467 0
          -1.2082297628095322 0.51889677759745734 0
          -1.2008817363182804 0.51606716383316675 0
          -1.1935098743918597 0.51330024182110778 0
          -1.1861195724782807 0.51058295607702642 0
          -1.1787157562588346 0.50790271199207937 0
          -1.1713027887498022 0.50524788341592886 0
          -1.1638843578302629 0.50260835994285891 0
          -1.156463336665605 0.49997612780096545 0
          -1.1490416130370651 0.49734587696313642 0
        </DataArray>
      </Points>
      <Cells>
        <DataArray type="Int32" Name="connectivity" format="ascii">
          0 1 1 2 2 3 3 4 4 5 5 6 6 7 7 8 8 9 9 10 10 11 11 12 12 13 13 14 14 15 15 16 16 17 17 18 18 19 19 20 20 21 21 22 22 23 23 24 24 25 25 26 26 27 27 28 28 29 29 30 30 31 31 32 32 33 33 34 34 35 35 36 36 37 37 38 38 39 39 40 40 41 41 42 42 43 43 44 44 45 45 46 46 47 47 48 48 49 49 50 50 51 51 52 52 53 53 54 54 55 55 56 56 57 57 58 58 59 59 60 60 61 61 62 62 63 63 64 64 65 65 66 66 67 67 68 68 69 69 70 70 71 71 72 72 73 73 74 74 75 75 76 76 77 77 78 78 79 79 80 80 81 81 82 82 83 83 84 84 85 85 86 86 87 87 88 88 89 89 90 90 91 91 92 92 93 93 94 94 95 95 96 96 97 97 98 98 99 99 100 100 101 101 102 102 103 103 104 104 105 105 106 106 107 107 108 108 109 109 110 110 111 111 112 112 113 113 114 114 115 115 116 116 117 117 118 118 119 119 120 120 121 121 122 122 123 123 124 124 125 125 126 126 127 
        </DataArray>
        <DataArray type="Int32" Name="offsets" format="ascii">
          2 4 6 8 10 12 14 16 18 20 22 24 26 28 30 32 34 36 38 40 42 44 46 48 50 52 54 56 58 60 62 64 66 68 70 72 74 76 78 80 82 84 86 88 90 92 94 96 98 100 102 104 106 108 110 112 114 116 118 120 122 124 126 128 130 132 134 136 138 140 142 144 146 148 150 152 154 156 158 160 162 164 166 168 170 172 174 176 178 180 182 184 186 188 190 192 194 196 198 200 202 204 206 208 210 212 214 216 218 220 222 224 226 228 230 232 234 236 238 240 242 244 246 248 250 252 254 
        </DataArray>
        <DataArray type="Int32" Name="types" format="ascii">
          3 3 3 3 3 3 3 3 3 3 3 3 3 3 3 3 3 3 3 3 3 3 3 3 3 3 3 3 3 3 3 3 3 3 3 3 3 3 3 3 3 3 3 3 3 3 3 3 3 3 3 3 3 3 3 3 3 3 3 3 3 3 3 3 3 3 3 3 3 3 3 3 3 3 3 3 3 3 3 3 3 3 3 3 3 3 3 3 3 3 3 3 3 3 3 3 3 3 3 3 3 3 3 3 3 3 3 3 3 3 3 3 3 3 3 3 3 3 3 3 3 3 3 3 3 3 3         </DataArray>
      </Cells>
    </Piece>
  </UnstructuredGrid>
</VTKFile>
<!-- DATA


-->
