<?xml version="1.0"?>
<VTKFile type="UnstructuredGrid" version="0.1" byte_order="LittleEndian">
  <UnstructuredGrid>
    <Piece NumberOfPoints="128" NumberOfCells="127">
      <PointData Scalars="u">
        <DataArray type="Float32" Name="Y" NumberOfComponents="2">

0 0
0.018842497038785679 9.5534590574518011e-05
0.047441415700058158 0.008026650817025055
0.082357173121648419 0.016288926945132218
0.12044504120301751 0.024502943248867395
0.1575666547445656 0.031929775495793102
0.18885170264998308 0.037878819370712719
0.21166983277482293 0.0419800841805235
0.22636440643844374 0.042901614613063362
0.23232445341117577 0.042708209151124561
0.23080936885880329 0.03772962515701108
0.22167455695190069 0.031392408253176136
0.20776860472225511 0.018630173176553046
0.18925482901400054 0.0047035858614552662
0.17129709906523516 -0.016931757013791827
0.15602377114826901 -0.042815613032295564
0.14017478886274259 -0.068413846394636324
0.12842615240494115 -0.10517586520342527
0.11738413733870459 -0.15056692401548405
0.084298078512102789 -0.17900579954593721
0.04870210672407603 -0.20473470771484278
0.020821897463436316 -0.23031235810573217
0.0045645125316572015 -0.25286231876411441
-0.00037328560592728816 -0.2678323521223091
0.0040570965212823346 -0.27239480257544713
0.016322737651283049 -0.26570812387225257
0.035366711463130841 -0.24758052422395985
0.056900993696581768 -0.21710307850335173
0.07903660125665124 -0.17583907602166535
0.099822926341103208 -0.12523247941155702
0.11859438550671753 -0.066952811907455473
0.13155020464960057 -0.0023103394313398473
0.13885894898718662 0.06595073098485621
0.14110983305996971 0.13609557391737684
0.13686161803657493 0.20678885242272649
0.12602605571054934 0.27574784606638658
0.10755945978999402 0.34022116913534994
0.085158247377831772 0.39847274919756032
0.058271615344823759 0.44993627245993117
0.027872065684663615 0.49421960879917021
-0.0050418818925452354 0.53130883408796925
-0.038271943316956346 0.56196591662749729
-0.073910181543894338 0.58501105580928747
-0.10896888096401677 0.59975670636017286
-0.14225334503287351 0.60593429394710918
-0.17157971514119802 0.60458601908704601
-0.19866764463181555 0.59431185516958596
-0.22043047631336107 0.57517937378931461
-0.23584291827487899 0.54763224242421149
-0.24344901520194126 0.51373890561359226
-0.24531605085034888 0.47263265574810331
-0.23821975976394139 0.42613121156494832
-0.22338488992998165 0.37222370255015819
-0.19803512885786517 0.31102290613013889
-0.16065506027961282 0.24345163440645307
-0.11207974932939062 0.16709078635690844
-0.04874764236373158 0.082165961551262531
0.029996130737830713 -0.01466478010164835
0.12725650800104515 -0.12506695637473111
0.2443049466382772 -0.24981557732208506
0.38106251748046466 -0.39152842750060735
0.5383389909055285 -0.5515439643350365
0.7154904538665956 -0.73189610526077464
0.91183944023201102 -0.93605447918825602
1.1239347816888725 -1.1670191804054115
1.3449103523647676 -1.4245375183224291
1.5663468485388885 -1.7058718829290254
1.7788097956404583 -2.0074305188301946
1.9762431956216671 -2.3250251359342964
2.1489404486576631 -2.6587835399548401
2.2886432137495398 -3.0051059003562477
2.3873122730523479 -3.3578604481976506
2.4437358453595577 -3.7084361837516706
2.4495813535457156 -4.0542390530539949
2.4014660436765207 -4.3875488188596101
2.2977491292703904 -4.698495946963571
2.1461507631165051 -4.9761746149581763
1.9444203775647773 -5.2162854340631162
1.6977063460100321 -5.4110247467440455
1.4128420550906227 -5.552358301112795
1.098335788588739 -5.6324558475989877
0.7746769460114219 -5.6471822325750045
0.44378801576874966 -5.598820347204164
0.11653312689115158 -5.4888833960502046
-0.19673884754632207 -5.3198304411869008
-0.48717771084408107 -5.0948363949616811
-0.73658883492993388 -4.8238609497219445
-0.9492101012160391 -4.5166879054002314
-1.1228663510352614 -4.1826238590091522
-1.2545665245797983 -3.8302425421853838
-1.3435238938453391 -3.466531163504424
-1.389505410421271 -3.0969560633755489
-1.3943669405850601 -2.7243643653460654
-1.3516642492094388 -2.3600660373901832
-1.27272911701048 -2.0070531214935068
-1.1614366098311022 -1.6703827394608188
-1.0213213359354472 -1.3533252618489044
-0.85521678329083928 -1.0575870682893536
-0.66490232836026431 -0.78364480802488878
-0.45104265253701142 -0.53085955498723647
-0.21287780555739511 -0.29811212788496455
0.051437691383671331 -0.083998698163687671
0.34466868542021006 0.1126976184827351
0.66959378873139408 0.29355710699973647
1.0295134366301153 0.45756793817210784
1.4255452906010109 0.6043915078247063
1.8573862732262563 0.73330342446031305
2.3230113046909127 0.84106835559325022
2.8181908986467845 0.92146216656216839
3.3277940993817094 0.98900209096415959
3.8347206031025074 1.0408002729487187
4.3066027411242231 1.0710274969642339
4.7178202886353073 1.0754847998965382
5.0458022344577858 1.0574914119884866
5.2709419537959272 1.0174434119083564
5.375104594858529 0.95628981470394681
5.3433571320571946 0.87384908089548874
5.1656266392340475 0.77236846844000451
4.8399386907438124 0.65719907666524091
4.3751317645049443 0.53469860143008341
3.7937116040592622 0.41394875829565025
3.1341978880123817 0.30419578172516837
2.4474554471034171 0.22257401377270022
1.7585468991477815 0.1391754991254632
1.0988679376113439 0.057976348299435508
0.53663031247586446 0.010573746017810434
0.14367928214267398 -0.002162786117431907
0 0

        </DataArray>
        <DataArray type="Float32" Name="W" NumberOfComponents="2">

-21.985977408458506 7.5347276210590675
-21.984274789850563 7.5270398218118881
-21.982639233887536 7.5193375095273502
-21.981050822101132 7.5116253595990665
-21.979489715259877 7.5039076472916966
-21.977922886611346 7.496191092539803
-21.976328943628229 7.4884800758688419
-21.974684863488115 7.4807795593643371
-21.972969047750986 7.4730946562016989
-21.971145449554285 7.4654345390851482
-21.969192245904889 7.4578063416070197
-21.967072007114655 7.4502227469721092
-21.964761213098548 7.4426948724704527
-21.962221746274288 7.435240838927891
-21.959430493100793 7.4278771626262419
-21.956349178978016 7.4206298057085798
-21.952939670622627 7.413530627331391
-21.949181820442252 7.4066091770325908
-21.945041147928702 7.399909320308117
-21.940505288642981 7.3934699880252825
-21.935580955675288 7.3873227979237788
-21.930292567990982 7.3814860052397524
-21.924666795869641 7.3759738110242017
-21.91872804527156 7.3708004707958974
-21.91250068019481 7.3659785507265836
-21.906010220325761 7.3615171804882706
-21.899281817511653 7.3574235890982456
-21.892338482370551 7.3537063200135204
-21.885204254803188 7.3503701615412149
-21.877902757719433 7.3474181259210365
-21.870456910366922 7.344852001650902
-21.862888055867923 7.342675446157866
-21.855218253549452 7.3408870329284568
-21.847468712931285 7.3394840864274391
-21.839659297329071 7.3384662279025292
-21.831809463489442 7.3378318028575515
-21.823938171884425 7.33757777224612
-21.81606369368081 7.3376948077859288
-21.808203156057111 7.3381768587932656
-21.800372783318824 7.3390164898454735
-21.79258775462927 7.3402048939575542
-21.784862092029623 7.3417320919677893
-21.777209913424361 7.3435926198161319
-21.769643112074831 7.3457743806825517
-21.762172105938483 7.3482643101734268
-21.754805729792803 7.35104841856747
-21.747553662070061 7.3541178371435745
-21.740421869713192 7.3574570547991467
-21.733414454528358 7.3610498187931181
-21.72653362423484 7.3648793027878572
-21.719783482183207 7.3689345841831315
-21.713162966369346 7.3731980836846844
-21.706673431646671 7.3776583014085029
-21.700310445678358 7.3822971544236102
-21.694067564682353 7.3870963149349427
-21.687942147370848 7.3920444229716651
-21.681924261673373 7.3971226717186225
-21.676007678976408 7.4023185098908577
-21.670178678441943 7.4076123409349117
-21.664421377804643 7.4129839982306223
-21.658724288749621 7.4184194240115762
-21.653067633010988 7.4238968825235121
-21.64743578491268 7.4293998290363632
-21.64181146447152 7.4349104736309766
-21.63616884714536 7.4404024094248884
-21.630481989130285 7.4458485755435646
-21.624729345565573 7.4512252906376446
-21.618890162078806 7.4565080093872007
-21.612951748567745 7.4616790756297631
-21.606895069898798 7.4667112844070251
-21.600702878404288 7.4715759867331331
-21.594360349515906 7.4762432370196565
-21.587862407560415 7.4806918485142804
-21.58120024218243 7.484890846778355
-21.574368883594769 7.4888089196185721
-21.567367644085582 7.4924150437781591
-21.560204801210194 7.4956888457560158
-21.552887629294002 7.4986018445556821
-21.545427699003547 7.5011273677652417
-21.537840677432175 7.5032411142998185
-21.53014600636704 7.5049217502239616
-21.52236853809281 7.506164624863219
-21.514532217981063 7.5069562808597725
-21.506662931306597 7.5072871481761334
-21.498787847991832 7.5071516147637647
-21.490934773282376 7.5065479930099235
-21.483129611873007 7.5054925044733718
-21.475397922817134 7.5039909050829214
-21.467764745428735 7.502049912125818
-21.460253678519468 7.4996801824483859
-21.45288692481649 7.4968942376851722
-21.445685177141918 7.4937061133764056
-21.438667535534339 7.4901310940137922
-21.431843590834536 7.4861991064807283
-21.425227618599184 7.4819265896153597
-21.418832484255436 7.4773302261101398
-21.412669814221232 7.4724266873027396
-21.406750182648938 7.4672324462386266
-21.401083223522505 7.4617637327283983
-21.395677853394652 7.4560363954067617
-21.390541940291357 7.4500662977991725
-21.385682344649997 7.4438692562946267
-21.381104736094105 7.4374611459326356
-21.376813555062586 7.430857845757167
-21.372809437776972 7.4240766737873365
-21.36909304988507 7.4171336809912418
-21.365662688019551 7.4100450475478956
-21.362512299101592 7.4028276695493078
-21.359636016805986 7.3954967824436908
-21.357023572490935 7.3880678129232944
-21.354646144944862 7.3805603333953913
-21.35249148499614 7.3729861689368441
-21.350531232327835 7.365359553332274
-21.348740095746408 7.3576915761577322
-21.347094321097856 7.3499911737586832
-21.345579068949359 7.3422640902812883
-21.344183522121202 7.3345145461579468
-21.342905174685118 7.3267448590000406
-21.341743908225119 7.3189568607894939
-21.34070076810286 7.3111522064640289
-21.339779134012883 7.303332304443523
-21.338977623474303 7.2954991881629967
-21.338258157299308 7.2876581106158369
-21.337543088094293 7.2798166290497717
-21.336971758526936 7.271963357504089
-21.336581374647427 7.2640989927490676
-21.336400731941715 7.2562270375468767
-21.336407377468827 7.248353022499348

        </DataArray>
        <DataArray type="Float32" Name="u" NumberOfComponents="1">
          0 0.007874015748031496 0.015748031496062992 0.023622047244094488 0.031496062992125984 0.03937007874015748 0.047244094488188976 0.055118110236220472 0.062992125984251968 0.070866141732283464 0.07874015748031496 0.086614173228346455 0.094488188976377951 0.10236220472440945 0.11023622047244094 0.11811023622047244 0.12598425196850394 0.13385826771653545 0.14173228346456693 0.14960629921259844 0.15748031496062992 0.16535433070866143 0.17322834645669291 0.18110236220472442 0.1889763779527559 0.19685039370078741 0.20472440944881889 0.2125984251968504 0.22047244094488189 0.2283464566929134 0.23622047244094488 0.24409448818897639 0.25196850393700787 0.25984251968503935 0.26771653543307089 0.27559055118110237 0.28346456692913385 0.29133858267716534 0.29921259842519687 0.30708661417322836 0.31496062992125984 0.32283464566929132 0.33070866141732286 0.33858267716535434 0.34645669291338582 0.3543307086614173 0.36220472440944884 0.37007874015748032 0.37795275590551181 0.38582677165354329 0.39370078740157483 0.40157480314960631 0.40944881889763779 0.41732283464566927 0.42519685039370081 0.43307086614173229 0.44094488188976377 0.44881889763779526 0.45669291338582679 0.46456692913385828 0.47244094488188976 0.48031496062992124 0.48818897637795278 0.49606299212598426 0.50393700787401574 0.51181102362204722 0.51968503937007871 0.52755905511811019 0.53543307086614178 0.54330708661417326 0.55118110236220474 0.55905511811023623 0.56692913385826771 0.57480314960629919 0.58267716535433067 0.59055118110236215 0.59842519685039375 0.60629921259842523 0.61417322834645671 0.62204724409448819 0.62992125984251968 0.63779527559055116 0.64566929133858264 0.65354330708661412 0.66141732283464572 0.6692913385826772 0.67716535433070868 0.68503937007874016 0.69291338582677164 0.70078740157480313 0.70866141732283461 0.71653543307086609 0.72440944881889768 0.73228346456692917 0.74015748031496065 0.74803149606299213 0.75590551181102361 0.76377952755905509 0.77165354330708658 0.77952755905511806 0.78740157480314965 0.79527559055118113 0.80314960629921262 0.8110236220472441 0.81889763779527558 0.82677165354330706 0.83464566929133854 0.84251968503937003 0.85039370078740162 0.8582677165354331 0.86614173228346458 0.87401574803149606 0.88188976377952755 0.88976377952755903 0.89763779527559051 0.90551181102362199 0.91338582677165359 0.92125984251968507 0.92913385826771655 0.93700787401574803 0.94488188976377951 0.952755905511811 0.96062992125984248 0.96850393700787396 0.97637795275590555 0.98425196850393704 0.99212598425196852 1
        </DataArray>
      </PointData>
      <CellData Scalars="P">
        <DataArray type="Float32" Name="P" NumberOfComponents="1">
          0.0241818511970609 0.056406031111316854 0.087277313627343173 0.12541062664768571 0.18437830456223281 0.25727653163700825 0.34096582632117239 0.42929714064079189 0.52719616341868714 0.62075859241096398 0.71681444937654937 0.80569200908179639 0.89996580512825275 0.99721610452388143 1.1252039707510519 1.2970593476407042 1.4908568235747 1.7185961339224496 1.928890719224517 2.0917739734905263 2.2683293089259098 2.4944280931486085 2.7981311319620481 3.1899486230502947 3.6653091943388345 4.2184931734765216 4.8485877496966774 5.5370730811686464 6.2688144088483053 7.0321078179929719 7.8234822871627525 8.6183429907081894 9.4058154553782476 10.187894741527977 10.95464404860504 11.692459275878324 12.377389349483828 13.016455367009844 13.607996983265529 14.151545368166852 14.648995086638255 15.111631064402344 15.523656250757508 15.881336353441762 16.185212482721042 16.444420376660933 16.647618435111831 16.794687826944521 16.89118491705284 16.947561627668239 16.962838696518755 16.940583001416666 16.879448644214314 16.784032011617739 16.655122926973075 16.501937184962649 16.320850908365724 16.130837797828402 15.950542932142557 15.779867833850835 15.669739287049506 15.62358325659955 15.673109194482134 15.905726550090122 16.363354488175702 17.04038773973587 17.945753193894735 19.006288932828003 20.288556784671865 21.776573306723368 23.437411086475905 25.14793715376117 26.941424750603669 28.766175498390293 30.557739190703078 32.196537610245478 33.690057428131261 34.99031611553238 36.047879273067373 36.812640553127473 37.226086774147916 37.313978555763697 37.083438003607647 36.544168976188573 35.707047992988038 34.621118983705898 33.322516035477982 31.860224908662826 30.280490775217778 28.615028875307164 26.8848502355251 25.100087470397252 23.333984200760032 21.560113301703954 19.805795215793641 18.086987551447699 16.409293005441953 14.769346326440452 13.154922623391469 11.548868995718143 9.9285450074001105 8.2692056610521654 6.5456874192757244 4.7513579327255586 2.8671347229488151 0.89792888944796179 -1.1248230861024202 -3.1857770193603665 -5.2253052354769096 -7.0586278891598209 -8.5864996860970599 -9.7704778980377167 -10.609366217661691 -11.117232882989914 -11.34305611710481 -11.308636870936754 -11.021357495647662 -10.479533724668341 -9.6938110322887336 -8.6768465066862159 -7.5270529299393738 -6.5082123425199567 -6.3683879417551834 -4.6141886376857233 -2.6001039482078259 -0.9169342332127367 -0.025045995736650929
        </DataArray>
      </CellData>
      <Points>
        <DataArray type="Float32" NumberOfComponents="3" format="ascii">
          -21.985977408458506 7.5347276210590675 0
          -21.984274789850563 7.5270398218118881 0
          -21.982639233887536 7.5193375095273502 0
          -21.981050822101132 7.5116253595990665 0
          -21.979489715259877 7.5039076472916966 0
          -21.977922886611346 7.496191092539803 0
          -21.976328943628229 7.4884800758688419 0
          -21.974684863488115 7.4807795593643371 0
          -21.972969047750986 7.4730946562016989 0
          -21.971145449554285 7.4654345390851482 0
          -21.969192245904889 7.4578063416070197 0
          -21.967072007114655 7.4502227469721092 0
          -21.964761213098548 7.4426948724704527 0
          -21.962221746274288 7.435240838927891 0
          -21.959430493100793 7.4278771626262419 0
          -21.956349178978016 7.4206298057085798 0
          -21.952939670622627 7.413530627331391 0
          -21.949181820442252 7.4066091770325908 0
          -21.945041147928702 7.399909320308117 0
          -21.940505288642981 7.3934699880252825 0
          -21.935580955675288 7.3873227979237788 0
          -21.930292567990982 7.3814860052397524 0
          -21.924666795869641 7.3759738110242017 0
          -21.91872804527156 7.3708004707958974 0
          -21.91250068019481 7.3659785507265836 0
          -21.906010220325761 7.3615171804882706 0
          -21.899281817511653 7.3574235890982456 0
          -21.892338482370551 7.3537063200135204 0
          -21.885204254803188 7.3503701615412149 0
          -21.877902757719433 7.3474181259210365 0
          -21.870456910366922 7.344852001650902 0
          -21.862888055867923 7.342675446157866 0
          -21.855218253549452 7.3408870329284568 0
          -21.847468712931285 7.3394840864274391 0
          -21.839659297329071 7.3384662279025292 0
          -21.831809463489442 7.3378318028575515 0
          -21.823938171884425 7.33757777224612 0
          -21.81606369368081 7.3376948077859288 0
          -21.808203156057111 7.3381768587932656 0
          -21.800372783318824 7.3390164898454735 0
          -21.79258775462927 7.3402048939575542 0
          -21.784862092029623 7.3417320919677893 0
          -21.777209913424361 7.3435926198161319 0
          -21.769643112074831 7.3457743806825517 0
          -21.762172105938483 7.3482643101734268 0
          -21.754805729792803 7.35104841856747 0
          -21.747553662070061 7.3541178371435745 0
          -21.740421869713192 7.3574570547991467 0
          -21.733414454528358 7.3610498187931181 0
          -21.72653362423484 7.3648793027878572 0
          -21.719783482183207 7.3689345841831315 0
          -21.713162966369346 7.3731980836846844 0
          -21.706673431646671 7.3776583014085029 0
          -21.700310445678358 7.3822971544236102 0
          -21.694067564682353 7.3870963149349427 0
          -21.687942147370848 7.3920444229716651 0
          -21.681924261673373 7.3971226717186225 0
          -21.676007678976408 7.4023185098908577 0
          -21.670178678441943 7.4076123409349117 0
          -21.664421377804643 7.4129839982306223 0
          -21.658724288749621 7.4184194240115762 0
          -21.653067633010988 7.4238968825235121 0
          -21.64743578491268 7.4293998290363632 0
          -21.64181146447152 7.4349104736309766 0
          -21.63616884714536 7.4404024094248884 0
          -21.630481989130285 7.4458485755435646 0
          -21.624729345565573 7.4512252906376446 0
          -21.618890162078806 7.4565080093872007 0
          -21.612951748567745 7.4616790756297631 0
          -21.606895069898798 7.4667112844070251 0
          -21.600702878404288 7.4715759867331331 0
          -21.594360349515906 7.4762432370196565 0
          -21.587862407560415 7.4806918485142804 0
          -21.58120024218243 7.484890846778355 0
          -21.574368883594769 7.4888089196185721 0
          -21.567367644085582 7.4924150437781591 0
          -21.560204801210194 7.4956888457560158 0
          -21.552887629294002 7.4986018445556821 0
          -21.545427699003547 7.5011273677652417 0
          -21.537840677432175 7.5032411142998185 0
          -21.53014600636704 7.5049217502239616 0
          -21.52236853809281 7.506164624863219 0
          -21.514532217981063 7.5069562808597725 0
          -21.506662931306597 7.5072871481761334 0
          -21.498787847991832 7.5071516147637647 0
          -21.490934773282376 7.5065479930099235 0
          -21.483129611873007 7.5054925044733718 0
          -21.475397922817134 7.5039909050829214 0
          -21.467764745428735 7.502049912125818 0
          -21.460253678519468 7.4996801824483859 0
          -21.45288692481649 7.4968942376851722 0
          -21.445685177141918 7.4937061133764056 0
          -21.438667535534339 7.4901310940137922 0
          -21.431843590834536 7.4861991064807283 0
          -21.425227618599184 7.4819265896153597 0
          -21.418832484255436 7.4773302261101398 0
          -21.412669814221232 7.4724266873027396 0
          -21.406750182648938 7.4672324462386266 0
          -21.401083223522505 7.4617637327283983 0
          -21.395677853394652 7.4560363954067617 0
          -21.390541940291357 7.4500662977991725 0
          -21.385682344649997 7.4438692562946267 0
          -21.381104736094105 7.4374611459326356 0
          -21.376813555062586 7.430857845757167 0
          -21.372809437776972 7.4240766737873365 0
          -21.36909304988507 7.4171336809912418 0
          -21.365662688019551 7.4100450475478956 0
          -21.362512299101592 7.4028276695493078 0
          -21.359636016805986 7.3954967824436908 0
          -21.357023572490935 7.3880678129232944 0
          -21.354646144944862 7.3805603333953913 0
          -21.35249148499614 7.3729861689368441 0
          -21.350531232327835 7.365359553332274 0
          -21.348740095746408 7.3576915761577322 0
          -21.347094321097856 7.3499911737586832 0
          -21.345579068949359 7.3422640902812883 0
          -21.344183522121202 7.3345145461579468 0
          -21.342905174685118 7.3267448590000406 0
          -21.341743908225119 7.3189568607894939 0
          -21.34070076810286 7.3111522064640289 0
          -21.339779134012883 7.303332304443523 0
          -21.338977623474303 7.2954991881629967 0
          -21.338258157299308 7.2876581106158369 0
          -21.337543088094293 7.2798166290497717 0
          -21.336971758526936 7.271963357504089 0
          -21.336581374647427 7.2640989927490676 0
          -21.336400731941715 7.2562270375468767 0
          -21.336407377468827 7.248353022499348 0
        </DataArray>
      </Points>
      <Cells>
        <DataArray type="Int32" Name="connectivity" format="ascii">
          0 1 1 2 2 3 3 4 4 5 5 6 6 7 7 8 8 9 9 10 10 11 11 12 12 13 13 14 14 15 15 16 16 17 17 18 18 19 19 20 20 21 21 22 22 23 23 24 24 25 25 26 26 27 27 28 28 29 29 30 30 31 31 32 32 33 33 34 34 35 35 36 36 37 37 38 38 39 39 40 40 41 41 42 42 43 43 44 44 45 45 46 46 47 47 48 48 49 49 50 50 51 51 52 52 53 53 54 54 55 55 56 56 57 57 58 58 59 59 60 60 61 61 62 62 63 63 64 64 65 65 66 66 67 67 68 68 69 69 70 70 71 71 72 72 73 73 74 74 75 75 76 76 77 77 78 78 79 79 80 80 81 81 82 82 83 83 84 84 85 85 86 86 87 87 88 88 89 89 90 90 91 91 92 92 93 93 94 94 95 95 96 96 97 97 98 98 99 99 100 100 101 101 102 102 103 103 104 104 105 105 106 106 107 107 108 108 109 109 110 110 111 111 112 112 113 113 114 114 115 115 116 116 117 117 118 118 119 119 120 120 121 121 122 122 123 123 124 124 125 125 126 126 127 
        </DataArray>
        <DataArray type="Int32" Name="offsets" format="ascii">
          2 4 6 8 10 12 14 16 18 20 22 24 26 28 30 32 34 36 38 40 42 44 46 48 50 52 54 56 58 60 62 64 66 68 70 72 74 76 78 80 82 84 86 88 90 92 94 96 98 100 102 104 106 108 110 112 114 116 118 120 122 124 126 128 130 132 134 136 138 140 142 144 146 148 150 152 154 156 158 160 162 164 166 168 170 172 174 176 178 180 182 184 186 188 190 192 194 196 198 200 202 204 206 208 210 212 214 216 218 220 222 224 226 228 230 232 234 236 238 240 242 244 246 248 250 252 254 
        </DataArray>
        <DataArray type="Int32" Name="types" format="ascii">
          3 3 3 3 3 3 3 3 3 3 3 3 3 3 3 3 3 3 3 3 3 3 3 3 3 3 3 3 3 3 3 3 3 3 3 3 3 3 3 3 3 3 3 3 3 3 3 3 3 3 3 3 3 3 3 3 3 3 3 3 3 3 3 3 3 3 3 3 3 3 3 3 3 3 3 3 3 3 3 3 3 3 3 3 3 3 3 3 3 3 3 3 3 3 3 3 3 3 3 3 3 3 3 3 3 3 3 3 3 3 3 3 3 3 3 3 3 3 3 3 3 3 3 3 3 3 3         </DataArray>
      </Cells>
    </Piece>
  </UnstructuredGrid>
</VTKFile>
<!-- DATA


-->
