<?xml version="1.0"?>
<VTKFile type="UnstructuredGrid" version="0.1" byte_order="LittleEndian">
  <UnstructuredGrid>
    <Piece NumberOfPoints="128" NumberOfCells="127">
      <PointData Scalars="u">
        <DataArray type="Float32" Name="Y" NumberOfComponents="2">

0 0
0.021554412492246124 -0.0090469009759655949
0.038273851798730801 -0.032005444034379632
0.058099793691193002 -0.056648414797953107
0.078968801216397988 -0.081765456960075658
0.099268159294347014 -0.10444091477439124
0.11578125847407014 -0.12238069033660458
0.12715657367720007 -0.13435189590167598
0.13413133460524096 -0.14048269137455405
0.13640523321064477 -0.14157038521505771
0.13537985277249889 -0.13671722107310055
0.13034779861437695 -0.12734194706927054
0.12477289921024075 -0.11228045388385294
0.11732680740816613 -0.094912879186322394
0.11373642751289754 -0.073815312861969753
0.1144444895025197 -0.052377803730860449
0.11575852921732706 -0.03237991188156248
0.12485382314395403 -0.0088807947555516811
0.1332627721838345 0.013745913519660495
0.150427983581952 0.041797920453861874
0.17403029743679208 0.075910480744861786
0.1683888462665839 0.10741383851711703
0.15654975057352624 0.13776984108785048
0.15148359441111403 0.16483195829155192
0.15060456824717094 0.18425153476981304
0.15458774164324973 0.19414785722120784
0.15938992212740016 0.19370201222526734
0.16434373988140857 0.18356951578627081
0.1676325310940639 0.16461762439175825
0.16922697260210159 0.13757411565482724
0.16597222667917566 0.10423227786294095
0.15808207144764155 0.066392095510029073
0.14646064362665703 0.024941458747956897
0.12867290962882758 -0.018112502811480472
0.10682274542228691 -0.062437690039975409
0.079871605325995396 -0.10678976295726281
0.048158926854032412 -0.14993570581753596
0.012370452668220545 -0.1904571834378368
-0.026453194066754442 -0.22696170063381479
-0.067052228663525767 -0.25820481210666857
-0.10803193454895095 -0.28323255125047353
-0.14798403172753907 -0.3015298059437953
-0.18572670787951764 -0.31303376597214616
-0.21958412909050529 -0.31910355289097397
-0.25010022275033328 -0.31782094638718872
-0.27472840520735359 -0.31019247128982014
-0.29254457971209741 -0.29691070660896246
-0.30277636051126156 -0.28035386819782215
-0.30666485882589567 -0.25881573216567155
-0.30263517498268838 -0.23444195579228314
-0.29051941002933934 -0.20925102635522522
-0.27120937748876023 -0.18132215071804178
-0.24272013833054953 -0.15366078200261149
-0.20467126599608851 -0.12377589977534104
-0.15443715372241973 -0.093203799935803439
-0.09062779998080614 -0.063135958450298221
-0.011803447627011935 -0.031399447079307599
0.085394461618025469 -0.00011879323077320274
0.20384640051062497 0.033065610482263919
0.34749922380425968 0.067681922233893743
0.51834922006853057 0.1032064820192531
0.717922961884775 0.14195566378286895
0.94737688471038828 0.18379006117478847
1.2065699191120332 0.23055295333238618
1.4957000575587684 0.28628164493810676
1.8102912422130357 0.35324585267223635
2.144160861380489 0.43223207553651566
2.4918437900873478 0.52795145171638658
2.846478978422744 0.64429715289183531
3.1998143112963704 0.78349956413513644
3.5454978556444332 0.94582391906976893
3.8764068396650408 1.1370639137977934
4.1845799773827395 1.3589079783714726
4.4610438863029298 1.6104991892502543
4.7006428425051459 1.885947962988695
4.8959092568971068 2.1881600934060255
5.0405445602011758 2.5133508488964242
5.1281823506168234 2.8555165265463147
5.1532420307819748 3.205785072390082
5.117517365288613 3.5499092700758084
5.0176681817670783 3.8850237464514064
4.8550627179261268 4.2013466879027241
4.6323936376873709 4.4883417250862978
4.3542104333547513 4.7347247584250001
4.036284313918566 4.9269048704758083
3.6819545955301254 5.0663691471204677
3.301542466746207 5.1494880962134095
2.9053096101070008 5.1737981472754111
2.5029541102924515 5.138083836546536
2.1143800077968562 5.042439112991671
1.7403284503229597 4.8982053703872355
1.3882860502865852 4.7129626613036812
1.0635589897747515 4.4942514017376931
0.7695470855810056 4.2489083836419619
0.50814959138811577 3.9824763237290002
0.28046950988187064 3.6987377153991408
0.084212452087506703 3.3989856431225136
-0.070013169819489948 3.0866748469049372
-0.19054031754156919 2.7659557678446487
-0.27741094366024954 2.4388121151067561
-0.33079661015189898 2.1052437390735927
-0.34878801036495694 1.7645781721405105
-0.3307906262911634 1.4151934590874247
-0.27467953260779987 1.0553220408105792
-0.17855581028966069 0.68331589800574066
-0.03926191742396249 0.29973253028317259
0.14341341330202351 -0.093532202516833612
0.36825007014313432 -0.49248618094946511
0.63253446644522027 -0.88980274303773521
0.92846462721268863 -1.2767872651939165
1.2469683423577909 -1.6414914392513846
1.5740768201036908 -1.9722930265408647
1.8898419975316425 -2.2612024075614285
2.1817731925151116 -2.4901365710227021
2.4249917832529047 -2.6497043347330562
2.6008169864546558 -2.7290542248977063
2.6921206522531955 -2.7175748944237941
2.6837576514334485 -2.6090039751328415
2.5770491846370023 -2.3904258484417449
2.3598741088389783 -2.0889243153819503
2.0477219448027117 -1.7332972679547136
1.6761964661600419 -1.3800929553170609
1.2942060434520994 -1.0606805001932378
0.92802499868361621 -0.74990033674559964
0.58636902481206399 -0.45756081629498324
0.29469441617896336 -0.21440702858451857
0.087244514422485403 -0.04585977568874771
0 0

        </DataArray>
        <DataArray type="Float32" Name="W" NumberOfComponents="2">

-34.401138850104452 10.784400432855142
-34.395187808381493 10.789556744767363
-34.389311055307566 10.794797496645076
-34.383497028998633 10.800107693318346
-34.377733872435506 10.805473011604196
-34.372000937622488 10.810870579892722
-34.36628475038416 10.816285867141946
-34.360570637244102 10.821703346907107
-34.354844768780772 10.827108424842603
-34.349083958003632 10.832476293252688
-34.343273160898995 10.8377900849373
-34.337389911133862 10.843023653181845
-34.331419906186589 10.848158180338231
-34.325340239366668 10.853162563791107
-34.319138153500312 10.858014637578997
-34.312792543869506 10.862677737832723
-34.306284232919211 10.867111298392174
-34.29960602450133 10.871285012106817
-34.292744460980273 10.87515045273895
-34.285699537315772 10.878671320330156
-34.278468551987366 10.881793114020507
-34.271062488783272 10.884474295047667
-34.263504753164838 10.88669176721298
-34.255826459254969 10.888446361274532
-34.248057015989303 10.889738268370994
-34.240225242769533 10.890572088316539
-34.232358397363711 10.890950882024065
-34.224482807142387 10.890882028058321
-34.216623390869231 10.890373851823677
-34.208803636473526 10.889436206342666
-34.201046150176353 10.888076688711001
-34.193371915030269 10.886306889517773
-34.185800333485219 10.884139758159021
-34.178350455838682 10.881585563531557
-34.171038974974607 10.878658766754372
-34.163882507573717 10.875371183616894
-34.156896582154033 10.87173532975733
-34.150095586689844 10.867764382977107
-34.143492672864753 10.863472197252863
-34.137099707056855 10.858873210323598
-34.130927158903418 10.853982434524065
-34.124983968360183 10.848815438749554
-34.119277515375316 10.843388188795883
-34.113813522393876 10.837716973780083
-34.108599747537518 10.831814967078644
-34.103638860080963 10.825698929497666
-34.098931648684726 10.819385640006915
-34.094477086437472 10.812891686179839
-34.090277588035121 10.806230015801789
-34.086328882856805 10.799416763882416
-34.082625498594417 10.792467187061607
-34.079165882575921 10.785393169905687
-34.07594100494817 10.778209174756734
-34.072946781060445 10.770926097966742
-34.07017108321029 10.763557038659183
-34.067600828534751 10.756113902569252
-34.065227824205408 10.748605619411634
-34.063035021162413 10.741042809930565
-34.061011182725437 10.733433104504337
-34.059135425996232 10.725785608046293
-34.057384498613764 10.718108621075784
-34.05574152821864 10.71040785136212
-34.054177656599776 10.702690664370094
-34.052671745245675 10.69496198175667
-34.051199569639145 10.687226813216906
-34.049716606985946 10.679493701948571
-34.048204269548179 10.671766261801759
-34.046632928633187 10.664050565761823
-34.044970791191908 10.656353861766599
-34.043186573236085 10.648684461569509
-34.041259131496922 10.641049701300952
-34.039157586736124 10.633460903060755
-34.036851864427398 10.625931492825524
-34.03431322946696 10.618477234123208
-34.031525254434911 10.611112435446934
-34.028463645684702 10.603856942431143
-34.0251068220402 10.596733038695541
-34.021436525942484 10.58976526624434
-34.017438322842459 10.582980142681402
-34.013110826337524 10.576399965721775
-34.008448005544714 10.570052817512046
-34.003448409876391 10.563967242946196
-33.998115216200198 10.558171648490598
-33.992456192787401 10.552693629181702
-33.986491805568477 10.547549673807973
-33.980237377540462 10.542762511799689
-33.973711494516145 10.538352534647613
-33.966935555501138 10.534337358691992
-33.959933194771843 10.530731587546793
-33.952735206475438 10.527534256129197
-33.945366570377551 10.524752838668203
-33.937852646658328 10.522392120588998
-33.930218724308041 10.520454566742927
-33.922489698473022 10.518940690268138
-33.914689861666439 10.517849381131517
-33.906842785952563 10.517178140309285
-33.89897119846318 10.516925030234024
-33.891096955037114 10.51706997768065
-33.883239766350997 10.51760676442416
-33.875418435655995 10.518528315840548
-33.867650874126547 10.519826956435701
-33.859953600501001 10.521492055019873
-33.8523422960983 10.523513888554456
-33.844831442748522 10.525881615039411
-33.837434203880846 10.528583329901046
-33.830161252453514 10.531603592914932
-33.823022127619147 10.534927767638948
-33.816024255644422 10.538539753535659
-33.809172002001254 10.542420812245496
-33.80246858507882 10.546553539258666
-33.795914269930705 10.55091877280096
-33.789509550292379 10.555500562394585
-33.783252961651201 10.560282516413965
-33.777132593282538 10.565237478719897
-33.771148037196639 10.570355503280048
-33.765290194863368 10.575617943786716
-33.759551467363053 10.581009899291535
-33.753928375315056 10.58652222581812
-33.748418878183521 10.592147994753782
-33.743053325583212 10.597911146229213
-33.737852202486543 10.603822939195769
-33.732818313558084 10.609877700288708
-33.727829080258296 10.615969309666205
-33.722828358506881 10.622051492227049
-33.717899805788157 10.628192309344399
-33.713055789244265 10.634400050801689
-33.708326243724429 10.640695489466365
-33.703788102341974 10.647130241672619

        </DataArray>
        <DataArray type="Float32" Name="u" NumberOfComponents="1">
          0 0.007874015748031496 0.015748031496062992 0.023622047244094488 0.031496062992125984 0.03937007874015748 0.047244094488188976 0.055118110236220472 0.062992125984251968 0.070866141732283464 0.07874015748031496 0.086614173228346455 0.094488188976377951 0.10236220472440945 0.11023622047244094 0.11811023622047244 0.12598425196850394 0.13385826771653545 0.14173228346456693 0.14960629921259844 0.15748031496062992 0.16535433070866143 0.17322834645669291 0.18110236220472442 0.1889763779527559 0.19685039370078741 0.20472440944881889 0.2125984251968504 0.22047244094488189 0.2283464566929134 0.23622047244094488 0.24409448818897639 0.25196850393700787 0.25984251968503935 0.26771653543307089 0.27559055118110237 0.28346456692913385 0.29133858267716534 0.29921259842519687 0.30708661417322836 0.31496062992125984 0.32283464566929132 0.33070866141732286 0.33858267716535434 0.34645669291338582 0.3543307086614173 0.36220472440944884 0.37007874015748032 0.37795275590551181 0.38582677165354329 0.39370078740157483 0.40157480314960631 0.40944881889763779 0.41732283464566927 0.42519685039370081 0.43307086614173229 0.44094488188976377 0.44881889763779526 0.45669291338582679 0.46456692913385828 0.47244094488188976 0.48031496062992124 0.48818897637795278 0.49606299212598426 0.50393700787401574 0.51181102362204722 0.51968503937007871 0.52755905511811019 0.53543307086614178 0.54330708661417326 0.55118110236220474 0.55905511811023623 0.56692913385826771 0.57480314960629919 0.58267716535433067 0.59055118110236215 0.59842519685039375 0.60629921259842523 0.61417322834645671 0.62204724409448819 0.62992125984251968 0.63779527559055116 0.64566929133858264 0.65354330708661412 0.66141732283464572 0.6692913385826772 0.67716535433070868 0.68503937007874016 0.69291338582677164 0.70078740157480313 0.70866141732283461 0.71653543307086609 0.72440944881889768 0.73228346456692917 0.74015748031496065 0.74803149606299213 0.75590551181102361 0.76377952755905509 0.77165354330708658 0.77952755905511806 0.78740157480314965 0.79527559055118113 0.80314960629921262 0.8110236220472441 0.81889763779527558 0.82677165354330706 0.83464566929133854 0.84251968503937003 0.85039370078740162 0.8582677165354331 0.86614173228346458 0.87401574803149606 0.88188976377952755 0.88976377952755903 0.89763779527559051 0.90551181102362199 0.91338582677165359 0.92125984251968507 0.92913385826771655 0.93700787401574803 0.94488188976377951 0.952755905511811 0.96062992125984248 0.96850393700787396 0.97637795275590555 0.98425196850393704 0.99212598425196852 1
        </DataArray>
      </PointData>
      <CellData Scalars="P">
        <DataArray type="Float32" Name="P" NumberOfComponents="1">
          0.024037740040826389 0.051765276175941545 0.072870329888726604 0.095231508942605028 0.12798777572884892 0.17002065170806754 0.22054238079354621 0.27582186542830428 0.33718678797296592 0.39797958577289477 0.45986255652801694 0.51863262354198103 0.58266301365525031 0.65283062108749446 0.7505965389585405 0.88995310875115374 1.0610740750201137 1.2861083653438559 1.542834385105091 1.8450022878714902 2.1446590871165578 2.397642267816972 2.6544712094133258 2.952396779481413 3.3045974760018546 3.7213374821765894 4.1942360170361734 4.7166166609162232 5.2808469670649423 5.886241168883144 6.5160061375079597 7.1599193247966006 7.8196871580795584 8.4808864615535793 9.1474468182833135 9.8144211498250069 10.474522728423487 11.118976616875212 11.738770062194687 12.325300396316317 12.871275047816511 13.371934724798409 13.825433988259665 14.238706090561713 14.598229124687077 14.901500120000325 15.151468917726342 15.359157201140333 15.518647255033704 15.634272987540216 15.714089229269961 15.754381228588498 15.757210632947407 15.717781460289325 15.637359268041314 15.515507099019521 15.356736675796792 15.156914926798473 14.93125067886972 14.697536297767009 14.457498364006879 14.265772854162233 14.122767403999481 14.064983015401962 14.22450505541077 14.4976031116207 14.96350632931628 15.651370675140669 16.564552461973026 17.629768061150703 18.908051701129686 20.382326346045382 22.021065478643585 23.710104460885489 25.482177485139726 27.294466529549997 29.094174874299178 30.819258111004579 32.360164237514745 33.722904403892322 34.866330741415183 35.748971176714207 36.329519191875917 36.564427403065487 36.480107255564427 36.090766267797783 35.412572459439907 34.462392592300297 33.295626557082919 31.947795365639109 30.475433019837247 28.92648599396323 27.338299530238647 25.736086084462354 24.132036497044702 22.517513480801643 20.944158995033753 19.368490872377958 17.793176469153099 16.208467227226535 14.605685396485175 12.958148719599631 11.245178816370847 9.4473586964301628 7.5666837193166661 5.5973527637820188 3.5617059282403734 1.5101796266311114 -0.51639401827650966 -2.4408111731621802 -4.2198904641004793 -5.7840653199671017 -6.9939221523155677 -7.9214183780844261 -8.4823176150095385 -8.6895066425212164 -8.5535663080332274 -8.0745615351188906 -7.0310040597251655 -5.5822984691726383 -3.8911766543440973 -3.3739697029369404 -3.4346363006331 -2.6248486702388698 -1.7684683268809986 -0.85840771247385139 -0.024982102203976335
        </DataArray>
      </CellData>
      <Points>
        <DataArray type="Float32" NumberOfComponents="3" format="ascii">
          -34.401138850104452 10.784400432855142 0
          -34.395187808381493 10.789556744767363 0
          -34.389311055307566 10.794797496645076 0
          -34.383497028998633 10.800107693318346 0
          -34.377733872435506 10.805473011604196 0
          -34.372000937622488 10.810870579892722 0
          -34.36628475038416 10.816285867141946 0
          -34.360570637244102 10.821703346907107 0
          -34.354844768780772 10.827108424842603 0
          -34.349083958003632 10.832476293252688 0
          -34.343273160898995 10.8377900849373 0
          -34.337389911133862 10.843023653181845 0
          -34.331419906186589 10.848158180338231 0
          -34.325340239366668 10.853162563791107 0
          -34.319138153500312 10.858014637578997 0
          -34.312792543869506 10.862677737832723 0
          -34.306284232919211 10.867111298392174 0
          -34.29960602450133 10.871285012106817 0
          -34.292744460980273 10.87515045273895 0
          -34.285699537315772 10.878671320330156 0
          -34.278468551987366 10.881793114020507 0
          -34.271062488783272 10.884474295047667 0
          -34.263504753164838 10.88669176721298 0
          -34.255826459254969 10.888446361274532 0
          -34.248057015989303 10.889738268370994 0
          -34.240225242769533 10.890572088316539 0
          -34.232358397363711 10.890950882024065 0
          -34.224482807142387 10.890882028058321 0
          -34.216623390869231 10.890373851823677 0
          -34.208803636473526 10.889436206342666 0
          -34.201046150176353 10.888076688711001 0
          -34.193371915030269 10.886306889517773 0
          -34.185800333485219 10.884139758159021 0
          -34.178350455838682 10.881585563531557 0
          -34.171038974974607 10.878658766754372 0
          -34.163882507573717 10.875371183616894 0
          -34.156896582154033 10.87173532975733 0
          -34.150095586689844 10.867764382977107 0
          -34.143492672864753 10.863472197252863 0
          -34.137099707056855 10.858873210323598 0
          -34.130927158903418 10.853982434524065 0
          -34.124983968360183 10.848815438749554 0
          -34.119277515375316 10.843388188795883 0
          -34.113813522393876 10.837716973780083 0
          -34.108599747537518 10.831814967078644 0
          -34.103638860080963 10.825698929497666 0
          -34.098931648684726 10.819385640006915 0
          -34.094477086437472 10.812891686179839 0
          -34.090277588035121 10.806230015801789 0
          -34.086328882856805 10.799416763882416 0
          -34.082625498594417 10.792467187061607 0
          -34.079165882575921 10.785393169905687 0
          -34.07594100494817 10.778209174756734 0
          -34.072946781060445 10.770926097966742 0
          -34.07017108321029 10.763557038659183 0
          -34.067600828534751 10.756113902569252 0
          -34.065227824205408 10.748605619411634 0
          -34.063035021162413 10.741042809930565 0
          -34.061011182725437 10.733433104504337 0
          -34.059135425996232 10.725785608046293 0
          -34.057384498613764 10.718108621075784 0
          -34.05574152821864 10.71040785136212 0
          -34.054177656599776 10.702690664370094 0
          -34.052671745245675 10.69496198175667 0
          -34.051199569639145 10.687226813216906 0
          -34.049716606985946 10.679493701948571 0
          -34.048204269548179 10.671766261801759 0
          -34.046632928633187 10.664050565761823 0
          -34.044970791191908 10.656353861766599 0
          -34.043186573236085 10.648684461569509 0
          -34.041259131496922 10.641049701300952 0
          -34.039157586736124 10.633460903060755 0
          -34.036851864427398 10.625931492825524 0
          -34.03431322946696 10.618477234123208 0
          -34.031525254434911 10.611112435446934 0
          -34.028463645684702 10.603856942431143 0
          -34.0251068220402 10.596733038695541 0
          -34.021436525942484 10.58976526624434 0
          -34.017438322842459 10.582980142681402 0
          -34.013110826337524 10.576399965721775 0
          -34.008448005544714 10.570052817512046 0
          -34.003448409876391 10.563967242946196 0
          -33.998115216200198 10.558171648490598 0
          -33.992456192787401 10.552693629181702 0
          -33.986491805568477 10.547549673807973 0
          -33.980237377540462 10.542762511799689 0
          -33.973711494516145 10.538352534647613 0
          -33.966935555501138 10.534337358691992 0
          -33.959933194771843 10.530731587546793 0
          -33.952735206475438 10.527534256129197 0
          -33.945366570377551 10.524752838668203 0
          -33.937852646658328 10.522392120588998 0
          -33.930218724308041 10.520454566742927 0
          -33.922489698473022 10.518940690268138 0
          -33.914689861666439 10.517849381131517 0
          -33.906842785952563 10.517178140309285 0
          -33.89897119846318 10.516925030234024 0
          -33.891096955037114 10.51706997768065 0
          -33.883239766350997 10.51760676442416 0
          -33.875418435655995 10.518528315840548 0
          -33.867650874126547 10.519826956435701 0
          -33.859953600501001 10.521492055019873 0
          -33.8523422960983 10.523513888554456 0
          -33.844831442748522 10.525881615039411 0
          -33.837434203880846 10.528583329901046 0
          -33.830161252453514 10.531603592914932 0
          -33.823022127619147 10.534927767638948 0
          -33.816024255644422 10.538539753535659 0
          -33.809172002001254 10.542420812245496 0
          -33.80246858507882 10.546553539258666 0
          -33.795914269930705 10.55091877280096 0
          -33.789509550292379 10.555500562394585 0
          -33.783252961651201 10.560282516413965 0
          -33.777132593282538 10.565237478719897 0
          -33.771148037196639 10.570355503280048 0
          -33.765290194863368 10.575617943786716 0
          -33.759551467363053 10.581009899291535 0
          -33.753928375315056 10.58652222581812 0
          -33.748418878183521 10.592147994753782 0
          -33.743053325583212 10.597911146229213 0
          -33.737852202486543 10.603822939195769 0
          -33.732818313558084 10.609877700288708 0
          -33.727829080258296 10.615969309666205 0
          -33.722828358506881 10.622051492227049 0
          -33.717899805788157 10.628192309344399 0
          -33.713055789244265 10.634400050801689 0
          -33.708326243724429 10.640695489466365 0
          -33.703788102341974 10.647130241672619 0
        </DataArray>
      </Points>
      <Cells>
        <DataArray type="Int32" Name="connectivity" format="ascii">
          0 1 1 2 2 3 3 4 4 5 5 6 6 7 7 8 8 9 9 10 10 11 11 12 12 13 13 14 14 15 15 16 16 17 17 18 18 19 19 20 20 21 21 22 22 23 23 24 24 25 25 26 26 27 27 28 28 29 29 30 30 31 31 32 32 33 33 34 34 35 35 36 36 37 37 38 38 39 39 40 40 41 41 42 42 43 43 44 44 45 45 46 46 47 47 48 48 49 49 50 50 51 51 52 52 53 53 54 54 55 55 56 56 57 57 58 58 59 59 60 60 61 61 62 62 63 63 64 64 65 65 66 66 67 67 68 68 69 69 70 70 71 71 72 72 73 73 74 74 75 75 76 76 77 77 78 78 79 79 80 80 81 81 82 82 83 83 84 84 85 85 86 86 87 87 88 88 89 89 90 90 91 91 92 92 93 93 94 94 95 95 96 96 97 97 98 98 99 99 100 100 101 101 102 102 103 103 104 104 105 105 106 106 107 107 108 108 109 109 110 110 111 111 112 112 113 113 114 114 115 115 116 116 117 117 118 118 119 119 120 120 121 121 122 122 123 123 124 124 125 125 126 126 127 
        </DataArray>
        <DataArray type="Int32" Name="offsets" format="ascii">
          2 4 6 8 10 12 14 16 18 20 22 24 26 28 30 32 34 36 38 40 42 44 46 48 50 52 54 56 58 60 62 64 66 68 70 72 74 76 78 80 82 84 86 88 90 92 94 96 98 100 102 104 106 108 110 112 114 116 118 120 122 124 126 128 130 132 134 136 138 140 142 144 146 148 150 152 154 156 158 160 162 164 166 168 170 172 174 176 178 180 182 184 186 188 190 192 194 196 198 200 202 204 206 208 210 212 214 216 218 220 222 224 226 228 230 232 234 236 238 240 242 244 246 248 250 252 254 
        </DataArray>
        <DataArray type="Int32" Name="types" format="ascii">
          3 3 3 3 3 3 3 3 3 3 3 3 3 3 3 3 3 3 3 3 3 3 3 3 3 3 3 3 3 3 3 3 3 3 3 3 3 3 3 3 3 3 3 3 3 3 3 3 3 3 3 3 3 3 3 3 3 3 3 3 3 3 3 3 3 3 3 3 3 3 3 3 3 3 3 3 3 3 3 3 3 3 3 3 3 3 3 3 3 3 3 3 3 3 3 3 3 3 3 3 3 3 3 3 3 3 3 3 3 3 3 3 3 3 3 3 3 3 3 3 3 3 3 3 3 3 3         </DataArray>
      </Cells>
    </Piece>
  </UnstructuredGrid>
</VTKFile>
<!-- DATA


-->
