<?xml version="1.0"?>
<VTKFile type="UnstructuredGrid" version="0.1" byte_order="LittleEndian">
  <UnstructuredGrid>
    <Piece NumberOfPoints="128" NumberOfCells="127">
      <PointData Scalars="u">
        <DataArray type="Float32" Name="Y" NumberOfComponents="2">

0 0
0.039145698268544381 -0.0064632384735817299
0.058232243008287818 -0.037074714261026119
0.080706307790117601 -0.068864065577307565
0.10387406174389401 -0.10057518925893946
0.12700288004643634 -0.12868468134231645
0.14674856513099685 -0.15162967945147249
0.16192672017596313 -0.16848568082379636
0.172288760851768 -0.1803878549303331
0.17870903801758339 -0.18740955736346976
0.18130745407699686 -0.19037232714486613
0.18072764025457408 -0.18992461732631735
0.1783872435083427 -0.18674098293657401
0.17475743315081796 -0.18246644024520117
0.17234513338790766 -0.17725359159595122
0.1718959421062301 -0.17281202009224408
0.17126342117356155 -0.16920616119086523
0.17265848632671038 -0.16288367585841501
0.17172192880228423 -0.15519404007402526
0.17223415821591709 -0.14122216168827839
0.16929077344017562 -0.1226888807124881
0.17031828340137148 -0.094261424061108462
0.16814356911825726 -0.060245506041387883
0.17642025998252336 -0.016058425971833858
0.18341292578090118 0.028008377290983946
0.16797358745834529 0.058132949031495504
0.15677674868823699 0.085726239585817571
0.14998667597652909 0.11098827823544209
0.14687464563357733 0.13307767815849145
0.14797062382130816 0.15082714777285383
0.15065992230987998 0.1632206179978401
0.15471221630159335 0.16995017831416356
0.16029191872625953 0.17039438655557942
0.16440303275945026 0.16465013914503229
0.16792613262738496 0.15257303308994538
0.16901387043858263 0.13458247546768728
0.16693575314378362 0.11157718255993465
0.16126397783049803 0.084877866597913132
0.15194229055035133 0.05601063657234618
0.139211617251257 0.026545558814810119
0.12357079403231501 -0.0020662264694105981
0.10570691283080784 -0.028662300226694075
0.086301468705106618 -0.052441884760523166
0.0668443313141764 -0.073754408982406511
0.046482949313602542 -0.090556590022507794
0.027338674925088333 -0.10276942213010173
0.010310394761087633 -0.11036089725886238
-0.0034104854172395016 -0.11487109107711835
-0.015015281402187776 -0.11462339273340207
-0.022787520624392061 -0.11085871314421694
-0.02598541355995378 -0.10512754023996347
-0.025461789825796832 -0.095597185682795363
-0.018831458481712783 -0.084601775773466809
-0.0059118620768212468 -0.069748666159085607
0.016027852627120046 -0.052128041210288113
0.048826831795163658 -0.032919339646178949
0.093786600197709957 -0.0099966025963458688
0.1546241312996551 0.014417314298577979
0.23394458205943103 0.042562193705285856
0.33584040391030662 0.073481486825454273
0.46296724507333742 0.10565969404027417
0.6171055137365643 0.140962280628568
0.80047411520722944 0.17729767661633788
1.0137847303876053 0.21555563381757833
1.2579720134070596 0.25871292666519369
1.5312804882122433 0.3046422993465579
1.8294866448544564 0.355376254518395
2.1496170947273634 0.41350490914649507
2.487599709647371 0.48187193852602023
2.8383321384049678 0.56222556350933661
3.1975642575325107 0.6573452534512958
3.5610618448799909 0.77285114400034038
3.9234112100973642 0.91267961812098453
4.2780706058202389 1.0787934014323124
4.6198290787747824 1.2717137290150389
4.9424380434310864 1.4973316019369556
5.2390539429548868 1.7572712693319819
5.5016591072629657 2.0515562225352233
5.7219018569091871 2.3768858501444434
5.8946495162371653 2.7261002458731931
6.0122042360604446 3.099440366761363
6.0688733333712372 3.4904283479258118
6.0595691566574361 3.8905249578266137
5.9813254582958546 4.2878321248897597
5.8388871856579581 4.6669361701467462
5.630839809681798 5.0247256170050898
5.3616299721240788 5.3516647732964584
5.0371987251315833 5.638432347735268
4.6659746730149001 5.8754481991496084
4.2650368004160333 6.0536209179405907
3.8384623841505014 6.1771971834020407
3.3968853206505671 6.2462152874285293
2.949930858578282 6.2620048137482005
2.5060314488675393 6.2267128065222259
2.0723939464462884 6.1427853974350288
1.6550446941668724 6.0125097706833195
1.2588139152707987 5.8372106701288189
0.89782142703432266 5.6195124330759398
0.56734361845527459 5.3665918355637254
0.27059179467727845 5.0827716895507047
0.0099523167993803389 4.7714764471440096
-0.21152593332923791 4.4359312792021894
-0.39319794879839365 4.0791940724464686
-0.53374484648035436 3.7042816997290968
-0.63249104735826445 3.3144684316304653
-0.68833452233183023 2.9144218375347735
-0.70321248584226204 2.5095840928088342
-0.67950015041952216 2.1065511162257664
-0.62046320598215343 1.7135420976589018
-0.53282267312845188 1.3390148490905367
-0.42319999981890011 0.99255900907454186
-0.30133552266998564 0.68228749271135192
-0.17838024316219325 0.41404446284887897
-0.059877964464487454 0.19836397447604759
0.037431960099380095 0.03780639027849813
0.10575184084808159 -0.063042761066093744
0.13570124552804164 -0.1023972762350616
0.1190372271577812 -0.081880268482278737
0.055506983876600927 -0.0021384521575822987
-0.052296688815211489 0.12271848597636588
-0.18726345848215947 0.2529906768732571
-0.31935213585623534 0.29563673466470525
-0.33461835727382117 0.29360536465810066
-0.27944770562884669 0.25083431762387998
-0.19815183305158565 0.17583338781118762
-0.1055724484743142 0.097007226261976928
-0.022899278543645429 0.048427252121706149
0 0

        </DataArray>
        <DataArray type="Float32" Name="W" NumberOfComponents="2">

-34.424014360796448 10.766381457785537
-34.417673012644421 10.771049735293465
-34.411445933164494 10.77586927821234
-34.405326163902188 10.780824277398747
-34.39930599802959 10.785899744243325
-34.393370145691165 10.791073492193732
-34.387508541357882 10.79633115003238
-34.381709704644202 10.801657907398548
-34.375962422045212 10.807040212258858
-34.370247063425843 10.812456381480242
-34.364550272281974 10.817892068623429
-34.358851606597895 10.823325798601006
-34.353136961761564 10.828742746922819
-34.347383669867753 10.834118677700879
-34.341577135553521 10.839437126560462
-34.335693816665888 10.844670606654702
-34.32971013679105 10.849789167085181
-34.323612225544096 10.854771256836655
-34.317377712409233 10.859581521103303
-34.31099532274277 10.864194044468142
-34.304447399383022 10.868568741798226
-34.297727548188604 10.872674890324047
-34.290823642221326 10.876463989179747
-34.283738019116761 10.879902046490139
-34.276468669152059 10.882933369620446
-34.269022524876526 10.885499800405805
-34.261431091491374 10.887597645497056
-34.253725764086738 10.889227927614849
-34.245936670622562 10.890393649777561
-34.238092648765495 10.891100162623767
-34.230220959181771 10.891351781592924
-34.22234772325568 10.891156929166877
-34.214497466884382 10.890525788052173
-34.206693485050664 10.88946660915361
-34.198957358744146 10.887991641393793
-34.191309769808321 10.886110997718417
-34.183770268922224 10.883835545973563
-34.176357276451128 10.881176850204541
-34.169088053234724 10.878147177206106
-34.161978689378394 10.874759419671678
-34.155044047998942 10.871027107826958
-34.148297682096228 10.86696442356731
-34.141751808129776 10.862586085832078
-34.135417228497793 10.857907320115293
-34.1293059439082 10.852940491177796
-34.123426157255039 10.847701720783183
-34.117784434839798 10.84220745449694
-34.112385724313562 10.836474281576148
-34.1072373051393 10.830515383688502
-34.102341191653615 10.824347559658831
-34.097698169769942 10.817987089134308
-34.093311795263965 10.811447043771972
-34.08917953067747 10.8047436073256
-34.085302445699782 10.797889479987155
-34.081674936030005 10.790900119108064
-34.078290273850783 10.783790044080826
-34.075145360702848 10.776570782790701
-34.072229579848141 10.769256035903096
-34.06953671119556 10.761856383644743
-34.067052249913253 10.754384239387585
-34.064759308696487 10.746851178240144
-34.062645886926568 10.739265851642543
-34.060689576830043 10.731638548043843
-34.058873959902321 10.723976583969083
-34.057179572029263 10.716286945249104
-34.055569326225161 10.708579284812227
-34.054027399923072 10.700857694670628
-34.052528029418085 10.693127746060856
-34.051042885503968 10.685395057549446
-34.049543235671372 10.677665162001819
-34.048008080220725 10.669942218122905
-34.046407083471202 10.662232617648142
-34.044709421440132 10.654543671841106
-34.042884119860183 10.646883953415959
-34.040909548021276 10.639261264987798
-34.038755823669931 10.631687143244051
-34.036393928136462 10.624175215977457
-34.033796261067472 10.616741396606821
-34.030937163794576 10.609404012571845
-34.027801636555132 10.602180281992968
-34.02436941370059 10.59509255396172
-34.020623616065919 10.588165269349179
-34.016551182390451 10.581424666067546
-34.012143277532743 10.574898343017418
-34.007404183129964 10.568608243174902
-34.002333830484247 10.562581839646366
-33.996936524237569 10.556846292743623
-33.991220895533402 10.551427794197027
-33.985199641277518 10.546350996790853
-33.978896053448487 10.541629277560553
-33.972328766961986 10.537281773777304
-33.965518902241804 10.533325045033124
-33.958489488189763 10.529773006969947
-33.951264936070622 10.526636934356391
-33.943870575660526 10.52392550703321
-33.93633226009613 10.521644855156177
-33.928675661185423 10.519800090251525
-33.920929154917332 10.518379782555007
-33.913117004935266 10.517382337322973
-33.905262757805758 10.516804108948044
-33.897389033727315 10.516639758066635
-33.889517333156121 10.516880402825064
-33.881667796583073 10.517517154099895
-33.873859187714828 10.518539632615385
-33.866108805001119 10.519936278024945
-33.858431933940892 10.521692397338958
-33.850842478706447 10.52379424368339
-33.843352643165773 10.526227193884834
-33.835972473105819 10.528974783390618
-33.828711083243356 10.532022342634866
-33.8215756902881 10.535354121480841
-33.814573696979863 10.53895770228257
-33.807711311242549 10.542820397925755
-33.800987424208365 10.546919304670368
-33.794408504932143 10.551246939109536
-33.787974259985489 10.555786757707841
-33.781684311616218 10.560524360205189
-33.775539790368228 10.565449004054136
-33.769540964882886 10.570550022582486
-33.76371088854571 10.57584301615465
-33.758100391344399 10.581368186424703
-33.752808327610381 10.587198863643467
-33.747586974348309 10.593092919505699
-33.742371495038967 10.59899215766295
-33.737208372882442 10.604937290259834
-33.732084403706672 10.610916243535984
-33.727002349714461 10.616930942065077
-33.722049158918686 10.623052332972854

        </DataArray>
        <DataArray type="Float32" Name="u" NumberOfComponents="1">
          0 0.007874015748031496 0.015748031496062992 0.023622047244094488 0.031496062992125984 0.03937007874015748 0.047244094488188976 0.055118110236220472 0.062992125984251968 0.070866141732283464 0.07874015748031496 0.086614173228346455 0.094488188976377951 0.10236220472440945 0.11023622047244094 0.11811023622047244 0.12598425196850394 0.13385826771653545 0.14173228346456693 0.14960629921259844 0.15748031496062992 0.16535433070866143 0.17322834645669291 0.18110236220472442 0.1889763779527559 0.19685039370078741 0.20472440944881889 0.2125984251968504 0.22047244094488189 0.2283464566929134 0.23622047244094488 0.24409448818897639 0.25196850393700787 0.25984251968503935 0.26771653543307089 0.27559055118110237 0.28346456692913385 0.29133858267716534 0.29921259842519687 0.30708661417322836 0.31496062992125984 0.32283464566929132 0.33070866141732286 0.33858267716535434 0.34645669291338582 0.3543307086614173 0.36220472440944884 0.37007874015748032 0.37795275590551181 0.38582677165354329 0.39370078740157483 0.40157480314960631 0.40944881889763779 0.41732283464566927 0.42519685039370081 0.43307086614173229 0.44094488188976377 0.44881889763779526 0.45669291338582679 0.46456692913385828 0.47244094488188976 0.48031496062992124 0.48818897637795278 0.49606299212598426 0.50393700787401574 0.51181102362204722 0.51968503937007871 0.52755905511811019 0.53543307086614178 0.54330708661417326 0.55118110236220474 0.55905511811023623 0.56692913385826771 0.57480314960629919 0.58267716535433067 0.59055118110236215 0.59842519685039375 0.60629921259842523 0.61417322834645671 0.62204724409448819 0.62992125984251968 0.63779527559055116 0.64566929133858264 0.65354330708661412 0.66141732283464572 0.6692913385826772 0.67716535433070868 0.68503937007874016 0.69291338582677164 0.70078740157480313 0.70866141732283461 0.71653543307086609 0.72440944881889768 0.73228346456692917 0.74015748031496065 0.74803149606299213 0.75590551181102361 0.76377952755905509 0.77165354330708658 0.77952755905511806 0.78740157480314965 0.79527559055118113 0.80314960629921262 0.8110236220472441 0.81889763779527558 0.82677165354330706 0.83464566929133854 0.84251968503937003 0.85039370078740162 0.8582677165354331 0.86614173228346458 0.87401574803149606 0.88188976377952755 0.88976377952755903 0.89763779527559051 0.90551181102362199 0.91338582677165359 0.92125984251968507 0.92913385826771655 0.93700787401574803 0.94488188976377951 0.952755905511811 0.96062992125984248 0.96850393700787396 0.97637795275590555 0.98425196850393704 0.99212598425196852 1
        </DataArray>
      </PointData>
      <CellData Scalars="P">
        <DataArray type="Float32" Name="P" NumberOfComponents="1">
          0.022398608487259958 0.032391393370500947 0.026998242171081044 0.018226437508390578 0.015677246764205486 0.024149680361870159 0.045725648613146951 0.077860393720928706 0.11756497957090777 0.16102435786216346 0.20643303805585181 0.25198273815228872 0.29971239638009933 0.35087625554486229 0.41498278157802798 0.49954522690757031 0.59853472192480006 0.72066390495570709 0.85039542159340209 0.99281947060472031 1.1283354308619098 1.2679775265752411 1.3949262134785689 1.5488201059575892 1.7516223144867034 1.981808683867933 2.2284467010376026 2.4905498690246546 2.7716133120548725 3.0802200521948562 3.4146440147382346 3.7754007612624534 4.1683116435421228 4.5879263293833921 5.0382240222339485 5.5164126777088125 6.0166429606627405 6.5310190461813402 7.0508009015199189 7.5671260041626889 8.0718554857990075 8.5586599643802117 9.0234629019583146 9.4696714208319417 9.8834004503445225 10.259828642051653 10.598822900699959 10.908747610252133 11.180910134225101 11.416709735562923 11.622946454905486 11.791455898328204 11.924067347762536 12.00979689150584 12.04567895555077 12.030470684499017 11.957644679014541 11.821835027730616 11.622194271835525 11.3648009905053 11.050093235406001 10.708246997184572 10.342326872448263 9.9775287082069948 9.7071136788465662 9.4760972394584488 9.3523121047503768 9.373207383172641 9.5622883544257373 9.8866751764105718 10.414986339163839 11.159048890932455 12.121745820583449 13.232592094416443 14.543310649719762 16.038133939160677 17.689791707655051 19.458560554390971 21.241033603888152 23.04781307128675 24.82929040489639 26.52913067597656 28.085206880648204 29.399073986304401 30.479453008369973 31.299353561883112 31.835821398906344 32.070734931429001 31.995496632530635 31.646983059782247 31.059083102377798 30.265861073835822 29.298639086823968 28.183347650574632 26.938491273264088 25.568880178006445 24.12121038171534 22.584695962292646 20.978054150150655 19.310979522266894 17.595363137349157 15.829561615347837 14.017470634882699 12.163677774729015 10.287912027249773 8.3998873696754366 6.5259005651019724 4.70602658912828 2.9682874820147673 1.3605251969503338 -0.092659232815216527 -1.3519058524171763 -2.3409492920617523 -3.0910449945376057 -3.5534408929130454 -3.7304163881347883 -3.6274428217877928 -3.2576483437699824 -2.5540095424608125 -1.4188550457496896 0.028110915395577196 0.19167386377954215 0.2353032566949565 0.18704381765258468 0.13313308706534444 0.076746388372008659 -0.02319290389966874
        </DataArray>
      </CellData>
      <Points>
        <DataArray type="Float32" NumberOfComponents="3" format="ascii">
          -34.424014360796448 10.766381457785537 0
          -34.417673012644421 10.771049735293465 0
          -34.411445933164494 10.77586927821234 0
          -34.405326163902188 10.780824277398747 0
          -34.39930599802959 10.785899744243325 0
          -34.393370145691165 10.791073492193732 0
          -34.387508541357882 10.79633115003238 0
          -34.381709704644202 10.801657907398548 0
          -34.375962422045212 10.807040212258858 0
          -34.370247063425843 10.812456381480242 0
          -34.364550272281974 10.817892068623429 0
          -34.358851606597895 10.823325798601006 0
          -34.353136961761564 10.828742746922819 0
          -34.347383669867753 10.834118677700879 0
          -34.341577135553521 10.839437126560462 0
          -34.335693816665888 10.844670606654702 0
          -34.32971013679105 10.849789167085181 0
          -34.323612225544096 10.854771256836655 0
          -34.317377712409233 10.859581521103303 0
          -34.31099532274277 10.864194044468142 0
          -34.304447399383022 10.868568741798226 0
          -34.297727548188604 10.872674890324047 0
          -34.290823642221326 10.876463989179747 0
          -34.283738019116761 10.879902046490139 0
          -34.276468669152059 10.882933369620446 0
          -34.269022524876526 10.885499800405805 0
          -34.261431091491374 10.887597645497056 0
          -34.253725764086738 10.889227927614849 0
          -34.245936670622562 10.890393649777561 0
          -34.238092648765495 10.891100162623767 0
          -34.230220959181771 10.891351781592924 0
          -34.22234772325568 10.891156929166877 0
          -34.214497466884382 10.890525788052173 0
          -34.206693485050664 10.88946660915361 0
          -34.198957358744146 10.887991641393793 0
          -34.191309769808321 10.886110997718417 0
          -34.183770268922224 10.883835545973563 0
          -34.176357276451128 10.881176850204541 0
          -34.169088053234724 10.878147177206106 0
          -34.161978689378394 10.874759419671678 0
          -34.155044047998942 10.871027107826958 0
          -34.148297682096228 10.86696442356731 0
          -34.141751808129776 10.862586085832078 0
          -34.135417228497793 10.857907320115293 0
          -34.1293059439082 10.852940491177796 0
          -34.123426157255039 10.847701720783183 0
          -34.117784434839798 10.84220745449694 0
          -34.112385724313562 10.836474281576148 0
          -34.1072373051393 10.830515383688502 0
          -34.102341191653615 10.824347559658831 0
          -34.097698169769942 10.817987089134308 0
          -34.093311795263965 10.811447043771972 0
          -34.08917953067747 10.8047436073256 0
          -34.085302445699782 10.797889479987155 0
          -34.081674936030005 10.790900119108064 0
          -34.078290273850783 10.783790044080826 0
          -34.075145360702848 10.776570782790701 0
          -34.072229579848141 10.769256035903096 0
          -34.06953671119556 10.761856383644743 0
          -34.067052249913253 10.754384239387585 0
          -34.064759308696487 10.746851178240144 0
          -34.062645886926568 10.739265851642543 0
          -34.060689576830043 10.731638548043843 0
          -34.058873959902321 10.723976583969083 0
          -34.057179572029263 10.716286945249104 0
          -34.055569326225161 10.708579284812227 0
          -34.054027399923072 10.700857694670628 0
          -34.052528029418085 10.693127746060856 0
          -34.051042885503968 10.685395057549446 0
          -34.049543235671372 10.677665162001819 0
          -34.048008080220725 10.669942218122905 0
          -34.046407083471202 10.662232617648142 0
          -34.044709421440132 10.654543671841106 0
          -34.042884119860183 10.646883953415959 0
          -34.040909548021276 10.639261264987798 0
          -34.038755823669931 10.631687143244051 0
          -34.036393928136462 10.624175215977457 0
          -34.033796261067472 10.616741396606821 0
          -34.030937163794576 10.609404012571845 0
          -34.027801636555132 10.602180281992968 0
          -34.02436941370059 10.59509255396172 0
          -34.020623616065919 10.588165269349179 0
          -34.016551182390451 10.581424666067546 0
          -34.012143277532743 10.574898343017418 0
          -34.007404183129964 10.568608243174902 0
          -34.002333830484247 10.562581839646366 0
          -33.996936524237569 10.556846292743623 0
          -33.991220895533402 10.551427794197027 0
          -33.985199641277518 10.546350996790853 0
          -33.978896053448487 10.541629277560553 0
          -33.972328766961986 10.537281773777304 0
          -33.965518902241804 10.533325045033124 0
          -33.958489488189763 10.529773006969947 0
          -33.951264936070622 10.526636934356391 0
          -33.943870575660526 10.52392550703321 0
          -33.93633226009613 10.521644855156177 0
          -33.928675661185423 10.519800090251525 0
          -33.920929154917332 10.518379782555007 0
          -33.913117004935266 10.517382337322973 0
          -33.905262757805758 10.516804108948044 0
          -33.897389033727315 10.516639758066635 0
          -33.889517333156121 10.516880402825064 0
          -33.881667796583073 10.517517154099895 0
          -33.873859187714828 10.518539632615385 0
          -33.866108805001119 10.519936278024945 0
          -33.858431933940892 10.521692397338958 0
          -33.850842478706447 10.52379424368339 0
          -33.843352643165773 10.526227193884834 0
          -33.835972473105819 10.528974783390618 0
          -33.828711083243356 10.532022342634866 0
          -33.8215756902881 10.535354121480841 0
          -33.814573696979863 10.53895770228257 0
          -33.807711311242549 10.542820397925755 0
          -33.800987424208365 10.546919304670368 0
          -33.794408504932143 10.551246939109536 0
          -33.787974259985489 10.555786757707841 0
          -33.781684311616218 10.560524360205189 0
          -33.775539790368228 10.565449004054136 0
          -33.769540964882886 10.570550022582486 0
          -33.76371088854571 10.57584301615465 0
          -33.758100391344399 10.581368186424703 0
          -33.752808327610381 10.587198863643467 0
          -33.747586974348309 10.593092919505699 0
          -33.742371495038967 10.59899215766295 0
          -33.737208372882442 10.604937290259834 0
          -33.732084403706672 10.610916243535984 0
          -33.727002349714461 10.616930942065077 0
          -33.722049158918686 10.623052332972854 0
        </DataArray>
      </Points>
      <Cells>
        <DataArray type="Int32" Name="connectivity" format="ascii">
          0 1 1 2 2 3 3 4 4 5 5 6 6 7 7 8 8 9 9 10 10 11 11 12 12 13 13 14 14 15 15 16 16 17 17 18 18 19 19 20 20 21 21 22 22 23 23 24 24 25 25 26 26 27 27 28 28 29 29 30 30 31 31 32 32 33 33 34 34 35 35 36 36 37 37 38 38 39 39 40 40 41 41 42 42 43 43 44 44 45 45 46 46 47 47 48 48 49 49 50 50 51 51 52 52 53 53 54 54 55 55 56 56 57 57 58 58 59 59 60 60 61 61 62 62 63 63 64 64 65 65 66 66 67 67 68 68 69 69 70 70 71 71 72 72 73 73 74 74 75 75 76 76 77 77 78 78 79 79 80 80 81 81 82 82 83 83 84 84 85 85 86 86 87 87 88 88 89 89 90 90 91 91 92 92 93 93 94 94 95 95 96 96 97 97 98 98 99 99 100 100 101 101 102 102 103 103 104 104 105 105 106 106 107 107 108 108 109 109 110 110 111 111 112 112 113 113 114 114 115 115 116 116 117 117 118 118 119 119 120 120 121 121 122 122 123 123 124 124 125 125 126 126 127 
        </DataArray>
        <DataArray type="Int32" Name="offsets" format="ascii">
          2 4 6 8 10 12 14 16 18 20 22 24 26 28 30 32 34 36 38 40 42 44 46 48 50 52 54 56 58 60 62 64 66 68 70 72 74 76 78 80 82 84 86 88 90 92 94 96 98 100 102 104 106 108 110 112 114 116 118 120 122 124 126 128 130 132 134 136 138 140 142 144 146 148 150 152 154 156 158 160 162 164 166 168 170 172 174 176 178 180 182 184 186 188 190 192 194 196 198 200 202 204 206 208 210 212 214 216 218 220 222 224 226 228 230 232 234 236 238 240 242 244 246 248 250 252 254 
        </DataArray>
        <DataArray type="Int32" Name="types" format="ascii">
          3 3 3 3 3 3 3 3 3 3 3 3 3 3 3 3 3 3 3 3 3 3 3 3 3 3 3 3 3 3 3 3 3 3 3 3 3 3 3 3 3 3 3 3 3 3 3 3 3 3 3 3 3 3 3 3 3 3 3 3 3 3 3 3 3 3 3 3 3 3 3 3 3 3 3 3 3 3 3 3 3 3 3 3 3 3 3 3 3 3 3 3 3 3 3 3 3 3 3 3 3 3 3 3 3 3 3 3 3 3 3 3 3 3 3 3 3 3 3 3 3 3 3 3 3 3 3         </DataArray>
      </Cells>
    </Piece>
  </UnstructuredGrid>
</VTKFile>
<!-- DATA


-->
