<?xml version="1.0"?>
<VTKFile type="UnstructuredGrid" version="0.1" byte_order="LittleEndian">
  <UnstructuredGrid>
    <Piece NumberOfPoints="128" NumberOfCells="127">
      <PointData Scalars="u">
        <DataArray type="Float32" Name="Y" NumberOfComponents="2">

0 0
0.010115335120542229 -0.031176336022124568
0.0057808209359098243 -0.039796485815602071
0.0026609026530122351 -0.048574826462149188
0.0015509164191903277 -0.056431741526073262
0.0031316934655815946 -0.061790353325783719
0.0077532915651259233 -0.062652259559207599
0.015269292362940294 -0.056740609423124221
0.024944717554265774 -0.041690156507977125
0.035449958147893347 -0.015255216743704555
0.04493997398803258 0.024496401222662938
0.051205285257487868 0.07903208876693113
0.05187156761423637 0.14926588606181343
0.044619694921828143 0.23554134468613488
0.027398328169542664 0.33768250395470628
-0.0013940876367392867 0.45509953518707352
-0.042773347125262144 0.58692884693861525
-0.097086214944808 0.73218469774449524
-0.16397855363347058 0.88990037375699926
-0.24240758404767945 1.0592408652661753
-0.330687739668448 1.2395745336036141
-0.42655899131747327 1.4304973409652875
-0.52726813709389952 1.6318089174496893
-0.62965659427079723 1.8434445174932526
-0.73025182080622342 2.0653705742500894
-0.82536282120725002 2.2974541527945789
-0.9111826071886685 2.5393183150729328
-0.98390156016465102 2.7901964264041661
-1.0398351920488609 3.0487988514659405
-1.0755678741458106 3.3132052770598022
-1.0881109773697339 3.5807949212852952
-1.0750700138276996 3.8482249632163583
-1.0348114109267106 4.111464523902125
-0.96661617736162209 4.365887464614981
-0.87080559777507238 4.6064223716355279
-0.74882373568677829 4.8277528283795244
-0.60326319525000405 5.0245560781088807
-0.43782423075410215 5.1917641735018272
-0.25720250460655142 5.3248293474003283
-0.066906912931214438 5.4199750681602215
0.12698489283722467 5.4744161943110763
0.31812016564034684 5.4865355924026966
0.50019663719628416 5.4560099859796827
0.66730029137833313 5.3838839055456598
0.81423485725121147 5.2725965832275907
0.93682311323258172 5.1259717359517918
1.0321613736950941 4.9491838583009775
1.0988097244817463 4.748716603859954
1.1369008378908689 4.5323290032339107
1.1481487336779912 4.3090436986146026
1.1357350010377536 4.0891680410113613
1.040362453668052 3.9023438410484479
0.8746274520498708 3.7438383672071596
0.72655376708913655 3.5848718967436461
0.59421372118593474 3.4229424379344593
0.47631636660546839 3.2561979435591746
0.3720025117846068 3.0834283502462112
0.28067487880191805 2.9040283359944561
0.20186158626542555 2.7179397669054035
0.13511115627980952 2.5255811569061422
0.079916964242115932 2.3277701966557034
0.035668594339384657 2.1256443123627351
0.001627052343389279 1.9205831834435774
-0.023079673277393419 1.7141361445873227
-0.039444542258527476 1.5079564356119421
-0.04855688435138894 1.3037433794326319
-0.051569281545447813 1.1031928088013911
-0.049659674879722164 0.90795546322029153
-0.04399210499972598 0.71960265994778538
-0.035679027339148066 0.53959830967278688
-0.025747598464299616 0.36927628232442972
-0.015111746613230021 0.20982220086088907
-0.0045512470858789927 0.062258910540319803
0.0053015503581004524 -0.072564906006436947
0.013967228117119845 -0.1939832639583117
0.021117401487812645 -0.30151864956753249
0.026566174052925121 -0.39488496318904526
0.030256022186654481 -0.47398747536669511
0.032239403589786213 -0.53891962278601502
0.032657506188594455 -0.58995652053980319
0.031717578509882882 -0.62754516897823531
0.029670216018777298 -0.6522914686607274
0.026787832333389026 -0.66494430480451394
0.023345336040835388 -0.66637710345075807
0.019603782279772542 -0.65756737907836038
0.015797495780244534 -0.63957487621952802
0.012124888554233531 -0.61351895012249247
0.0087429415710449012 -0.58055583331708704
0.0057650998203777615 -0.54185640034984295
0.003262156269070322 -0.49858497934501711
0.0012655785003692038 -0.45187967551595748
-0.00022733688233841153 -0.40283457762648456
-0.0012471143937639222 -0.35248412206153806
-0.0018451601312199238 -0.30178979728647043
-0.0020867754672296373 -0.25162928859478834
-0.0020445783308774348 -0.20278809159184821
-0.0017926815552641129 -0.15595356341292219
-0.0014018676218436616 -0.11171133240438513
-0.00093589076087478688 -0.070543948243015603
-0.0004489389772341531 -0.032831623204900594
1.5794919246081817e-05 0.0011451104211943888
0.00042654980406367417 0.031201023517324962
0.00076260245633997593 0.057240309464953218
0.0010132322359736789 0.079249431521599065
0.0011762407976794039 0.097288944054815168
0.0012562166301641835 0.11148454449863722
0.0012627145123442821 0.12201762051913788
0.0012084920587649901 0.12911556036103219
0.0011079127009398964 0.13304209304732051
0.00097558974485217193 0.13408791847570922
0.00082531331889054227 0.13256187508799341
0.00066927231194770047 0.12878287443694683
0.00051755958288215455 0.12307280750093537
0.00037793043512105145 0.11575059698035964
0.00025577289531759928 0.10712753308686185
0.0001542427286877648 0.097503987612857432
7.4515589987775811e-05 0.08716755250691996
1.6112300643266898e-05 0.076392595025597226
-2.2740049071254817e-05 0.065441162154716084
-4.4741007341133036e-05 0.054565102939063297
-5.3165188078455774e-05 0.044009209405477943
-5.1540762575053713e-05 0.034015105984956724
-4.336750133283025e-05 0.024825545151691747
-3.1880986102595995e-05 0.016688695207665676
-1.9870471450238367e-05 0.0098619369654590096
-9.5608585425165664e-06 0.0046146221517700901
-2.5749971170336835e-06 0.0012291906911535517
0 0

        </DataArray>
        <DataArray type="Float32" Name="W" NumberOfComponents="2">

-0.17369694266613794 0.025236081092012499
-0.16945843863251464 0.018600122920259338
-0.16476867466618242 0.012275008746463086
-0.15963211386168724 0.0063070289565383018
-0.15406245326881862 0.00074106202434105826
-0.14808210702858243 -0.0043811068508042943
-0.14172130942599953 -0.0090223821747095808
-0.13501688015627047 -0.013151766842663603
-0.12801072022766141 -0.016745497369773193
-0.12074812650533133 -0.019787844476544129
-0.11327602392575414 -0.022271546728669728
-0.10564121615538893 -0.024197874795061775
-0.097888748464506972 -0.025576351496348182
-0.090060462401507571 -0.02642417553584888
-0.082193802713838263 -0.026765412883925387
-0.074320915355698861 -0.026630028450532493
-0.06646805372197799 -0.026052832073486441
-0.058655290425107809 -0.025072407856895209
-0.050896515389452564 -0.023730085905768417
-0.043199688551120337 -0.022069002166606597
-0.035567307203347255 -0.020133277083507952
-0.027997043717037571 -0.017967328662933563
-0.020482508350792773 -0.015615321604824862
-0.013014093321764389 -0.013120742388667636
-0.0055798573839764658 -0.01052608125736069
0.0018335859053789185 -0.0078725962622938281
0.0092402088359906584 -0.0052001319807632174
0.016653767567837881 -0.0025469660098244116
0.024087082025061345 5.0340506009676945e-05
0.031551418312637663 0.0025571067914511303
0.039055990383016187 0.0049407225784385564
0.046607593440955247 0.0071708688586970409
0.054210376837887923 0.0092197663596664016
0.061865758908904445 0.011062442413686528
0.069572480446416202 0.012677001939390389
0.077326787555078269 0.014044885264267545
0.085122728900293584 0.015151094739719097
0.092952547328986876 0.015984373537071467
0.10080714197971027 0.016537323423304256
0.10867657469210006 0.016806453251603137
0.11655059399739608 0.01679215577885685
0.12441915124760769 0.016498616600313251
0.13227288634018455 0.015933664863803213
0.14010356465400414 0.015108580492596909
0.14790445173047448 0.014037876566367636
0.15567061733003895 0.012739078124408169
0.16339916516469086 0.01123251997836556
0.17108938826658127 0.0095411863078793662
0.17874285206270754 0.0076906141037651988
0.18636340729892492 0.0057088811835085667
0.19395713254553151 0.0036266977423376947
0.20153220069002084 0.0014776182883268548
0.20917177179066523 -0.00042951512462789351
0.21686557019532324 -0.0021045298321862764
0.22460441523683589 -0.0035572817568267925
0.23238010172149939 -0.0047978105342492833
0.24018531989567529 -0.0058364543421413201
0.24801360218171215 -0.0066839249248163216
0.25585928615247822 -0.0073513451228065744
0.26371748528002165 -0.0078502524758605266
0.27158406094844117 -0.0081925732730651762
0.27945559104660145 -0.0083905718535720354
0.28732933212458511 -0.0084567800835642325
0.29520317357702802 -0.0084039118136355999
0.30307558357817477 -0.0082447668178740278
0.3109455475170575 -0.0079921282913146836
0.31881250045682352 -0.0076586574908133918
0.3266762556717272 -0.0072567885928949208
0.33453693161139064 -0.0067986263479173706
0.34239487972664867 -0.0062958486588519632
0.35025061549365566 -0.0057596158195779967
0.35810475472669279 -0.0052004878158733994
0.36595795691147115 -0.0046283508177526606
0.3738108768563877 -0.0040523537639443434
0.38166412548473128 -0.0034808557442906618
0.38951824010930497 -0.002921384709201788
0.39737366407173252 -0.0023806078640930335
0.40523073521666136 -0.0018643139312887595
0.41308968232565424 -0.0013774072767093275
0.42095062837041608 -0.00092391370274350331
0.42881359926768881 -0.00050699750512514334
0.43667853673018048 -0.00012898918669421451
0.44454531380515994 0.00020857697698490623
0.45241375176581505 0.00050491650687991977
0.46028363715722603 0.00075994056812237658
0.46815473798326257 0.00097419536406035236
0.47602681823595916 0.0011487964319614871
0.48389965019802217 0.0012853592427837942
0.49177302417630758 0.0013859275145102592
0.4996467555357646 0.001452900617657716
0.50752068908867198 0.0014889613866650934
0.51539470104545326 0.001497005557120787
0.52326869884669491 0.001480073932040556
0.53114261927011108 0.0014412882466298212
0.53901642524276172 0.0013837915558551216
0.54689010179172948 0.0013106938178476552
0.55476365154118512 0.0012250231930976494
0.5626370901168195 0.0011296834282576221
0.57051044175684096 0.0010274175471478692
0.57838373535882681 0.00092077793265122319
0.58625700111979195 0.00081210275353425505
0.59413026785807199 0.00070349857143262495
0.60200356104407382 0.00059682885663677756
0.60987690151546947 0.00049370804807618988
0.61775030481262194 0.00039550071404015845
0.62562378104244742 0.00030332530655247851
0.63349733516309459 0.00021806195462216097
0.64137096757654588 0.00014036371029492686
0.64924467491979299 7.06706467470077e-05
0.65711845095555321 9.2262095131845193e-06
0.66499228747845185 -4.3904760085845065e-05
0.67286617517012959 -8.8816876922447185e-05
0.68074010435503862 -0.00012574443950559124
0.68861406562624539 -0.00015504147269876766
0.69648805032627159 -0.00017716195447112362
0.70436205088113801 -0.00019264051586387229
0.7122360609959858 -0.00020207381790034683
0.72011007572791819 -0.00020610272084841186
0.72798409145623744 -0.00020539527341590822
0.73585810577247324 -0.00020063046580483476
0.74373211731296507 -0.00019248261503945242
0.75160612555580109 -0.00018160618783056047
0.75948013060204833 -0.00016862081983117722
0.76735413295875488 -0.00015409626495338586
0.77522813333834029 -0.0001385370089031244
0.78310213248566074 -0.00012236631153809987
0.79097613104006781 -0.00010590950702746861
0.79885012943478639 -8.937649254157566e-05

        </DataArray>
        <DataArray type="Float32" Name="u" NumberOfComponents="1">
          0 0.007874015748031496 0.015748031496062992 0.023622047244094488 0.031496062992125984 0.03937007874015748 0.047244094488188976 0.055118110236220472 0.062992125984251968 0.070866141732283464 0.07874015748031496 0.086614173228346455 0.094488188976377951 0.10236220472440945 0.11023622047244094 0.11811023622047244 0.12598425196850394 0.13385826771653545 0.14173228346456693 0.14960629921259844 0.15748031496062992 0.16535433070866143 0.17322834645669291 0.18110236220472442 0.1889763779527559 0.19685039370078741 0.20472440944881889 0.2125984251968504 0.22047244094488189 0.2283464566929134 0.23622047244094488 0.24409448818897639 0.25196850393700787 0.25984251968503935 0.26771653543307089 0.27559055118110237 0.28346456692913385 0.29133858267716534 0.29921259842519687 0.30708661417322836 0.31496062992125984 0.32283464566929132 0.33070866141732286 0.33858267716535434 0.34645669291338582 0.3543307086614173 0.36220472440944884 0.37007874015748032 0.37795275590551181 0.38582677165354329 0.39370078740157483 0.40157480314960631 0.40944881889763779 0.41732283464566927 0.42519685039370081 0.43307086614173229 0.44094488188976377 0.44881889763779526 0.45669291338582679 0.46456692913385828 0.47244094488188976 0.48031496062992124 0.48818897637795278 0.49606299212598426 0.50393700787401574 0.51181102362204722 0.51968503937007871 0.52755905511811019 0.53543307086614178 0.54330708661417326 0.55118110236220474 0.55905511811023623 0.56692913385826771 0.57480314960629919 0.58267716535433067 0.59055118110236215 0.59842519685039375 0.60629921259842523 0.61417322834645671 0.62204724409448819 0.62992125984251968 0.63779527559055116 0.64566929133858264 0.65354330708661412 0.66141732283464572 0.6692913385826772 0.67716535433070868 0.68503937007874016 0.69291338582677164 0.70078740157480313 0.70866141732283461 0.71653543307086609 0.72440944881889768 0.73228346456692917 0.74015748031496065 0.74803149606299213 0.75590551181102361 0.76377952755905509 0.77165354330708658 0.77952755905511806 0.78740157480314965 0.79527559055118113 0.80314960629921262 0.8110236220472441 0.81889763779527558 0.82677165354330706 0.83464566929133854 0.84251968503937003 0.85039370078740162 0.8582677165354331 0.86614173228346458 0.87401574803149606 0.88188976377952755 0.88976377952755903 0.89763779527559051 0.90551181102362199 0.91338582677165359 0.92125984251968507 0.92913385826771655 0.93700787401574803 0.94488188976377951 0.952755905511811 0.96062992125984248 0.96850393700787396 0.97637795275590555 0.98425196850393704 0.99212598425196852 1
        </DataArray>
      </PointData>
      <CellData Scalars="P">
        <DataArray type="Float32" Name="P" NumberOfComponents="1">
          0.0031101860280659866 0.0098252933918039475 0.021184080240984074 0.046359185396720973 0.09872725878303816 0.19452879585966545 0.35118766084712988 0.58549072475819675 0.9118254580128653 1.3406492772680836 1.877323363236308 2.5213922658884953 3.2663365719155024 4.0997764418340346 5.0040645464783751 5.9571811892594111 6.9338330990588979 7.9066592551311574 8.847459279564621 9.7283785970820151 10.523005671111578 11.207356491717842 11.760737231555359 12.166485797365993 12.412596273549008 12.492227517071118 12.404089935044627 12.152694979270628 11.748442703187266 11.207516385027967 10.551551832624609 9.8070538790519315 9.0045440685808593 8.1774408375800185 7.360694839677465 6.5892249597095534 5.8962222185781084 5.3114065765359388 4.8593335957820303 4.5578529676732638 4.4168190951605295 4.4371463935197673 4.6102908204526658 4.9182271560834225 5.3339819267176338 5.8227779332344785 6.3438512488667422 6.8530178413359675 7.3060959902764244 7.6633315691890775 7.8950215232237317 7.1107953124889107 6.4005366002523818 5.7435256696783483 5.1255753363787884 4.5377470633053036 3.9752764923778421 3.436638623809622 2.9227120275186347 2.4360229137251794 1.9800644275042547 1.5586951976839374 1.1756250976846676 0.83399650665310221 0.53606717371521273 0.28299705328868641 0.074737015621740885 -0.089987197624919663 -0.21360651210635137 -0.29956963276502513 -0.35215016663703802 -0.37621747247993448 -0.37698914345600831 -0.3597821965891646 -0.32977831077464254 -0.2918159918513436 -0.25021954930759971 -0.20867146530394654 -0.17013135024131726 -0.13680142976299478 -0.11013559331571669 -0.090886616116654259 -0.07918436027186497 -0.074636629717710165 -0.076443905897657136 -0.083519383669713454 -0.094606473485478279 -0.10838711780948246 -0.12357574939869533 -0.13899535312393216 -0.15363374483568581 -0.16667973046931855 -0.177540160257072 -0.18583997879810751 -0.19140815334586489 -0.19425282941029903 -0.19452922856627144 -0.1925037019275839 -0.18851703213297885 -0.18294959359232596 -0.17619039507589032 -0.16861139878469245 -0.1605478884589899 -0.15228508982329708 -0.14405076302202965 -0.13601311036519922 -0.12828308382906919 -0.12092003486157543 -0.11393961461394481 -0.1073228893053348 -0.10102576198724111 -0.094987965289200754 -0.089141086645387377 -0.083415286858618681 -0.077744556933105544 -0.072070513538040171 -0.066344851606723876 -0.060530649343724666 -0.054602756206665125 -0.048547491315201509 -0.042361843571191604 -0.036052302473374667 -0.029633368306149582 -0.023125701545754614 -0.016553785432863084 -0.0099429072578624874 -0.0033152317891495171
        </DataArray>
      </CellData>
      <Points>
        <DataArray type="Float32" NumberOfComponents="3" format="ascii">
          -0.17369694266613794 0.025236081092012499 0
          -0.16945843863251464 0.018600122920259338 0
          -0.16476867466618242 0.012275008746463086 0
          -0.15963211386168724 0.0063070289565383018 0
          -0.15406245326881862 0.00074106202434105826 0
          -0.14808210702858243 -0.0043811068508042943 0
          -0.14172130942599953 -0.0090223821747095808 0
          -0.13501688015627047 -0.013151766842663603 0
          -0.12801072022766141 -0.016745497369773193 0
          -0.12074812650533133 -0.019787844476544129 0
          -0.11327602392575414 -0.022271546728669728 0
          -0.10564121615538893 -0.024197874795061775 0
          -0.097888748464506972 -0.025576351496348182 0
          -0.090060462401507571 -0.02642417553584888 0
          -0.082193802713838263 -0.026765412883925387 0
          -0.074320915355698861 -0.026630028450532493 0
          -0.06646805372197799 -0.026052832073486441 0
          -0.058655290425107809 -0.025072407856895209 0
          -0.050896515389452564 -0.023730085905768417 0
          -0.043199688551120337 -0.022069002166606597 0
          -0.035567307203347255 -0.020133277083507952 0
          -0.027997043717037571 -0.017967328662933563 0
          -0.020482508350792773 -0.015615321604824862 0
          -0.013014093321764389 -0.013120742388667636 0
          -0.0055798573839764658 -0.01052608125736069 0
          0.0018335859053789185 -0.0078725962622938281 0
          0.0092402088359906584 -0.0052001319807632174 0
          0.016653767567837881 -0.0025469660098244116 0
          0.024087082025061345 5.0340506009676945e-05 0
          0.031551418312637663 0.0025571067914511303 0
          0.039055990383016187 0.0049407225784385564 0
          0.046607593440955247 0.0071708688586970409 0
          0.054210376837887923 0.0092197663596664016 0
          0.061865758908904445 0.011062442413686528 0
          0.069572480446416202 0.012677001939390389 0
          0.077326787555078269 0.014044885264267545 0
          0.085122728900293584 0.015151094739719097 0
          0.092952547328986876 0.015984373537071467 0
          0.10080714197971027 0.016537323423304256 0
          0.10867657469210006 0.016806453251603137 0
          0.11655059399739608 0.01679215577885685 0
          0.12441915124760769 0.016498616600313251 0
          0.13227288634018455 0.015933664863803213 0
          0.14010356465400414 0.015108580492596909 0
          0.14790445173047448 0.014037876566367636 0
          0.15567061733003895 0.012739078124408169 0
          0.16339916516469086 0.01123251997836556 0
          0.17108938826658127 0.0095411863078793662 0
          0.17874285206270754 0.0076906141037651988 0
          0.18636340729892492 0.0057088811835085667 0
          0.19395713254553151 0.0036266977423376947 0
          0.20153220069002084 0.0014776182883268548 0
          0.20917177179066523 -0.00042951512462789351 0
          0.21686557019532324 -0.0021045298321862764 0
          0.22460441523683589 -0.0035572817568267925 0
          0.23238010172149939 -0.0047978105342492833 0
          0.24018531989567529 -0.0058364543421413201 0
          0.24801360218171215 -0.0066839249248163216 0
          0.25585928615247822 -0.0073513451228065744 0
          0.26371748528002165 -0.0078502524758605266 0
          0.27158406094844117 -0.0081925732730651762 0
          0.27945559104660145 -0.0083905718535720354 0
          0.28732933212458511 -0.0084567800835642325 0
          0.29520317357702802 -0.0084039118136355999 0
          0.30307558357817477 -0.0082447668178740278 0
          0.3109455475170575 -0.0079921282913146836 0
          0.31881250045682352 -0.0076586574908133918 0
          0.3266762556717272 -0.0072567885928949208 0
          0.33453693161139064 -0.0067986263479173706 0
          0.34239487972664867 -0.0062958486588519632 0
          0.35025061549365566 -0.0057596158195779967 0
          0.35810475472669279 -0.0052004878158733994 0
          0.36595795691147115 -0.0046283508177526606 0
          0.3738108768563877 -0.0040523537639443434 0
          0.38166412548473128 -0.0034808557442906618 0
          0.38951824010930497 -0.002921384709201788 0
          0.39737366407173252 -0.0023806078640930335 0
          0.40523073521666136 -0.0018643139312887595 0
          0.41308968232565424 -0.0013774072767093275 0
          0.42095062837041608 -0.00092391370274350331 0
          0.42881359926768881 -0.00050699750512514334 0
          0.43667853673018048 -0.00012898918669421451 0
          0.44454531380515994 0.00020857697698490623 0
          0.45241375176581505 0.00050491650687991977 0
          0.46028363715722603 0.00075994056812237658 0
          0.46815473798326257 0.00097419536406035236 0
          0.47602681823595916 0.0011487964319614871 0
          0.48389965019802217 0.0012853592427837942 0
          0.49177302417630758 0.0013859275145102592 0
          0.4996467555357646 0.001452900617657716 0
          0.50752068908867198 0.0014889613866650934 0
          0.51539470104545326 0.001497005557120787 0
          0.52326869884669491 0.001480073932040556 0
          0.53114261927011108 0.0014412882466298212 0
          0.53901642524276172 0.0013837915558551216 0
          0.54689010179172948 0.0013106938178476552 0
          0.55476365154118512 0.0012250231930976494 0
          0.5626370901168195 0.0011296834282576221 0
          0.57051044175684096 0.0010274175471478692 0
          0.57838373535882681 0.00092077793265122319 0
          0.58625700111979195 0.00081210275353425505 0
          0.59413026785807199 0.00070349857143262495 0
          0.60200356104407382 0.00059682885663677756 0
          0.60987690151546947 0.00049370804807618988 0
          0.61775030481262194 0.00039550071404015845 0
          0.62562378104244742 0.00030332530655247851 0
          0.63349733516309459 0.00021806195462216097 0
          0.64137096757654588 0.00014036371029492686 0
          0.64924467491979299 7.06706467470077e-05 0
          0.65711845095555321 9.2262095131845193e-06 0
          0.66499228747845185 -4.3904760085845065e-05 0
          0.67286617517012959 -8.8816876922447185e-05 0
          0.68074010435503862 -0.00012574443950559124 0
          0.68861406562624539 -0.00015504147269876766 0
          0.69648805032627159 -0.00017716195447112362 0
          0.70436205088113801 -0.00019264051586387229 0
          0.7122360609959858 -0.00020207381790034683 0
          0.72011007572791819 -0.00020610272084841186 0
          0.72798409145623744 -0.00020539527341590822 0
          0.73585810577247324 -0.00020063046580483476 0
          0.74373211731296507 -0.00019248261503945242 0
          0.75160612555580109 -0.00018160618783056047 0
          0.75948013060204833 -0.00016862081983117722 0
          0.76735413295875488 -0.00015409626495338586 0
          0.77522813333834029 -0.0001385370089031244 0
          0.78310213248566074 -0.00012236631153809987 0
          0.79097613104006781 -0.00010590950702746861 0
          0.79885012943478639 -8.937649254157566e-05 0
        </DataArray>
      </Points>
      <Cells>
        <DataArray type="Int32" Name="connectivity" format="ascii">
          0 1 1 2 2 3 3 4 4 5 5 6 6 7 7 8 8 9 9 10 10 11 11 12 12 13 13 14 14 15 15 16 16 17 17 18 18 19 19 20 20 21 21 22 22 23 23 24 24 25 25 26 26 27 27 28 28 29 29 30 30 31 31 32 32 33 33 34 34 35 35 36 36 37 37 38 38 39 39 40 40 41 41 42 42 43 43 44 44 45 45 46 46 47 47 48 48 49 49 50 50 51 51 52 52 53 53 54 54 55 55 56 56 57 57 58 58 59 59 60 60 61 61 62 62 63 63 64 64 65 65 66 66 67 67 68 68 69 69 70 70 71 71 72 72 73 73 74 74 75 75 76 76 77 77 78 78 79 79 80 80 81 81 82 82 83 83 84 84 85 85 86 86 87 87 88 88 89 89 90 90 91 91 92 92 93 93 94 94 95 95 96 96 97 97 98 98 99 99 100 100 101 101 102 102 103 103 104 104 105 105 106 106 107 107 108 108 109 109 110 110 111 111 112 112 113 113 114 114 115 115 116 116 117 117 118 118 119 119 120 120 121 121 122 122 123 123 124 124 125 125 126 126 127 
        </DataArray>
        <DataArray type="Int32" Name="offsets" format="ascii">
          2 4 6 8 10 12 14 16 18 20 22 24 26 28 30 32 34 36 38 40 42 44 46 48 50 52 54 56 58 60 62 64 66 68 70 72 74 76 78 80 82 84 86 88 90 92 94 96 98 100 102 104 106 108 110 112 114 116 118 120 122 124 126 128 130 132 134 136 138 140 142 144 146 148 150 152 154 156 158 160 162 164 166 168 170 172 174 176 178 180 182 184 186 188 190 192 194 196 198 200 202 204 206 208 210 212 214 216 218 220 222 224 226 228 230 232 234 236 238 240 242 244 246 248 250 252 254 
        </DataArray>
        <DataArray type="Int32" Name="types" format="ascii">
          3 3 3 3 3 3 3 3 3 3 3 3 3 3 3 3 3 3 3 3 3 3 3 3 3 3 3 3 3 3 3 3 3 3 3 3 3 3 3 3 3 3 3 3 3 3 3 3 3 3 3 3 3 3 3 3 3 3 3 3 3 3 3 3 3 3 3 3 3 3 3 3 3 3 3 3 3 3 3 3 3 3 3 3 3 3 3 3 3 3 3 3 3 3 3 3 3 3 3 3 3 3 3 3 3 3 3 3 3 3 3 3 3 3 3 3 3 3 3 3 3 3 3 3 3 3 3         </DataArray>
      </Cells>
    </Piece>
  </UnstructuredGrid>
</VTKFile>
<!-- DATA


-->
