<?xml version="1.0"?>
<VTKFile type="UnstructuredGrid" version="0.1" byte_order="LittleEndian">
  <UnstructuredGrid>
    <Piece NumberOfPoints="128" NumberOfCells="127">
      <PointData Scalars="u">
        <DataArray type="Float32" Name="Y" NumberOfComponents="2">

0 0
0.14466171514944767 -0.024704688539525614
0.14764973286172539 -0.055695203169012102
0.14985132986904154 -0.076814371830711645
0.15340476636765088 -0.090400983581519545
0.15636848212715926 -0.09831159375219499
0.15842134025752336 -0.10186557634241461
0.15956422705264195 -0.10227070707613484
0.1583252643299492 -0.10174283727129833
0.15739007406373304 -0.099084339044622369
0.15470696935583214 -0.094149767108487867
0.14974806454121109 -0.086446177717079214
0.141970467734571 -0.076312356583964056
0.13055640753766712 -0.065424695932111421
0.11760011130392389 -0.052274224507290565
0.10171327606672785 -0.037397146105202249
0.082294040308292293 -0.022773952015746234
0.061927204574230274 -0.0071659019495681677
0.039363995902545447 0.0071469808293503131
0.016861655489956186 0.021637445696017041
-0.0065207455846599894 0.034313683327866655
-0.028693227933268201 0.046606318200914924
-0.050135200590530116 0.056722660659282192
-0.068837427346439953 0.065910741346908094
-0.08473999343954533 0.072358743475111995
-0.095851928410413956 0.076935741176068356
-0.10176288959359325 0.078394669790350119
-0.10135500002145098 0.077105038293247302
-0.094262237001003155 0.072827773597653966
-0.080753916253506461 0.065443891081550104
-0.061626228187984904 0.055296840828537086
-0.034796497393658136 0.042513959950332823
-0.0020794139322255086 0.024899470425092132
0.035167238780071185 0.0037946448317488159
0.076729455522538459 -0.02099863701394275
0.12547609124141665 -0.048811316893496458
0.174782348814644 -0.083983738662936
0.22290687718665628 -0.12112447960693415
0.26617274267187629 -0.15792931599067569
0.30304491932506766 -0.1911123512709533
0.33198096539935074 -0.21818300325767953
0.35204067086665802 -0.23642608459794487
0.3651954254237415 -0.24239710485997129
0.37215157355820799 -0.23483750282778398
0.36645220230947989 -0.21694757034858606
0.33262994359369147 -0.20202182939597535
0.30089990782088194 -0.18211886148801895
0.27347127254856918 -0.16019106868007388
0.25072986399226688 -0.13933916802828258
0.23226874122849309 -0.12199392935569268
0.21714172665418377 -0.10957101410638019
0.20420694026762701 -0.10233552622596995
0.19245315188656409 -0.099468553872196205
0.18114904975673499 -0.09928256070933307
0.17042303413924131 -0.099764667314604941
0.16043890205889003 -0.098848080866107926
0.1519818816770202 -0.095104538374258349
0.14697670363200785 -0.088774925503488269
0.14449448620125438 -0.079423448270773744
0.14512901395876079 -0.067290179646411374
0.15040566749979983 -0.053842211095685592
0.15821253716556691 -0.037579937771129002
0.17134810694663036 -0.020227011438803705
0.18943692081770427 -0.0012158422538203341
0.21251297662323962 0.021153673912441971
0.24370251444128976 0.044887124090851077
0.28279175792829936 0.070506791429499782
0.3308628298894109 0.097784488982166878
0.38926625934406939 0.12657563337077454
0.45957131019544128 0.15671362007919193
0.54348407867060733 0.18794349563879265
0.64268112452159354 0.22000218190944998
0.75881512506500004 0.25209081866694838
0.89305677299462805 0.28355813702034099
1.046279101412452 0.3136011457012588
1.2188977052307259 0.34142159612792172
1.410784740102313 0.36631402581979822
1.6212250365538794 0.38775617902802195
1.8493390919691304 0.40385800202497363
2.0944134306067586 0.41690745931706891
2.3573522889411875 0.42743640993025744
2.6385642317401174 0.43674538004294761
2.9381121557150141 0.44650032101727993
3.2557113980874859 0.45880286412966892
3.5907014607543202 0.47623331794190626
3.941992104815363 0.50187229258982491
4.3079854186014677 0.53929113181762811
4.686475203779624 0.59250588548809646
5.0745329650659565 0.66587590310749423
5.4684004605096881 0.76398515794320809
5.8633786034960664 0.89145942867732442
6.2537501993656894 1.0526745905535655
6.6327717223199034 1.2514672342085169
6.9927592237395633 1.490790601688579
7.3252945480777205 1.7723655143121575
7.6215701679754346 2.0963722251586101
7.8728735673489556 2.4612396623797639
8.0711863553414762 2.8635952535063445
8.2098420013359004 3.2984317340146334
8.2841536453626752 3.7595222348025019
8.2919088304857791 4.2400690496207707
8.2328113824843427 4.7349495868704023
8.1038352693368498 5.2423637722447216
7.9105910127734562 5.7488974124845171
7.6569681930247215 6.2502439246159636
7.3406323867948133 6.7474732709051253
6.9701999995719026 7.2290537487254429
6.5491073516617959 7.6911067469155432
6.0791106006236006 8.130650382361722
5.5524522814702673 8.5440847707857976
4.9777834806550443 8.9114591294299323
4.3660120379121228 9.2149067515586847
3.7121462256619648 9.4420263850236399
3.026914927940946 9.5688620764202668
2.333241277304571 9.5700626855324238
1.6426924142848598 9.4237462044873457
0.99393047897892972 9.1082070204350529
0.41707646167027568 8.6139926383952492
-0.058237636780344791 7.9444553936959847
-0.41618704581423632 7.1145718017341792
-0.64028256589303056 6.1530757317400351
-0.7370228742193522 5.0998263111600517
-0.71776344961201899 4.0051145824811405
-0.59458865475809941 2.9257031366060495
-0.47304282975330664 1.8719639152089289
-0.23463824553342549 0.96289024616334207
-0.012858531306766499 0.31111113983350702
0 0

        </DataArray>
        <DataArray type="Float32" Name="W" NumberOfComponents="2">

-28.784813497580974 9.1021045830647278
-28.7769999459729 9.1030938967315436
-28.769245523882905 9.1044715695158231
-28.761567305974271 9.1062244889521278
-28.753979707375603 9.1083351269227606
-28.746496424439076 9.1107898386135755
-28.739129715424479 9.1135746936580642
-28.731890438876093 9.1166755609809336
-28.724788230608933 9.1200784748360579
-28.717828717145164 9.1237642595658208
-28.711018148084108 9.1277183248684608
-28.704361435933208 9.1319260925437256
-28.697862521457097 9.1363735500081678
-28.691523882497073 9.1410464576468957
-28.685343225946063 9.145926264959467
-28.679320291458065 9.1509993244078309
-28.673454081214988 9.1562526954889609
-28.667737724354243 9.1616686219938934
-28.66216734763341 9.167234464604272
-28.656732888436299 9.1729329811979952
-28.651427914408892 9.1787521300208574
-28.646239242046423 9.1846751184066786
-28.641157966512399 9.1906904091525341
-28.636167720079168 9.1967813534912146
-28.631257828141138 9.2029371919688483
-28.62640816920813 9.2091405438887204
-28.621605628317202 9.2153804111821032
-28.616826945053621 9.2216385517667447
-28.612056706726758 9.227903135767022
-28.607269383568319 9.2341547005899205
-28.602446877004631 9.2403792180777096
-28.597571226196816 9.2465622780421928
-28.592612982156268 9.2526794212250163
-28.587552300081256 9.2587122457806732
-28.582370254906156 9.2646413423467919
-28.577047375684678 9.2704445758146345
-28.571553783256725 9.2760867696200311
-28.565872801916768 9.2815405977377274
-28.559988784227215 9.2867751524333713
-28.553889557131722 9.2917577880210693
-28.547565288679635 9.2964520879546981
-28.541010217632515 9.3008190193580376
-28.534224246470913 9.3048185861055188
-28.527211868427333 9.3084074760469537
-28.519984546364924 9.311542406588476
-28.512561026957762 9.3141790293797158
-28.504977268512707 9.3163109916942624
-28.497269258161705 9.3179368102641664
-28.489471948890483 9.3190578073451356
-28.481619036347308 9.3196777849537931
-28.47374280717737 9.3198027253140268
-28.465874039618051 9.3194405543489651
-28.458041930096662 9.318600964369022
-28.450274022170021 9.3172953045955786
-28.442596058003954 9.3155367824790822
-28.435031952818289 9.3133398909368221
-28.427603533623401 9.3107208891635498
-28.4203304306434 9.307697451211224
-28.413231521328143 9.3042852116479811
-28.406323751435028 9.300501120779483
-28.399622206359926 9.2963629217654908
-28.393142407362479 9.291885599523928
-28.38689615037644 9.2870879647332085
-28.380895674901442 9.2819863817572887
-28.375152025120478 9.2765973955815095
-28.369671688079087 9.2709409493326653
-28.364462071641487 9.265034330781118
-28.359528934054353 9.2588950204588993
-28.354876358555412 9.2525405570548482
-28.350506689175162 9.2459884362406992
-28.346420461513276 9.2392560059837638
-28.34261632776602 9.2323603584106735
-28.339090620016528 9.2253183965908629
-28.335838022358299 9.2181463087470803
-28.332851194414772 9.2108596472079469
-28.330120769478722 9.2034731963128102
-28.327635393930315 9.1960008434921114
-28.325381795513447 9.188455467201722
-28.323344893367487 9.1808488442857108
-28.321513145346294 9.1731903385175837
-28.319868363427574 9.1654896177733107
-28.318390772348593 9.1577551734432507
-28.317059043269253 9.1499943721817374
-28.31585034294196 9.1422135372846611
-28.314740394151585 9.1344180650892604
-28.313703561442683 9.1266125778410387
-28.312712944412624 9.1188011179464024
-28.311740495827031 9.1109873815065736
-28.310757166928358 9.1031749896037439
-28.309733130653619 9.0953677869322274
-28.308637911507436 9.0875701827213096
-28.307440704799557 9.0797874885534604
-28.306110697371736 9.0720262622410086
-28.304617448009548 9.064294632590391
-28.302931324156955 9.0566025841819009
-28.301023983391975 9.0489621806445726
-28.298868882627847 9.0413877061657804
-28.296441788538399 9.0338957102121125
-28.293721255902536 9.0265049491794365
-28.290689031857021 9.0192362328233404
-28.287330364705561 9.0121121901065031
-28.283634163696959 9.0051569985031907
-28.279586312504868 8.9984001221276824
-28.275183365827569 8.9918687961728185
-28.270426207406363 8.9855905007446282
-28.265312289698322 8.9795989656928636
-28.259849373034033 8.9739235923086085
-28.254048608256159 8.9685938044043318
-28.247924432214244 8.9636388445430963
-28.241489268037377 8.9590949524123058
-28.234765076857347 8.9549908009041168
-28.22778173474326 8.9513450453605152
-28.220566955655364 8.9481820216306751
-28.213152235103159 8.9455215306123179
-28.205574421239149 8.9433695695204314
-28.197868594289844 8.9417349805021455
-28.190072579519185 8.9406076623932851
-28.18222168092154 8.9399682204090745
-28.174347106263305 8.9397857028945769
-28.166474351546825 8.9400284460733488
-28.158622818176884 8.940652912921994
-28.150806254357843 8.9416203174982343
-28.143033931148583 8.9428948484186943
-28.135314997084826 8.9444606011519472
-28.1276766029107 8.946381645646543
-28.120080392797874 8.9484637906571365
-28.112526416704927 8.9506951304804048
-28.105032625698538 8.9531220403374263

        </DataArray>
        <DataArray type="Float32" Name="u" NumberOfComponents="1">
          0 0.007874015748031496 0.015748031496062992 0.023622047244094488 0.031496062992125984 0.03937007874015748 0.047244094488188976 0.055118110236220472 0.062992125984251968 0.070866141732283464 0.07874015748031496 0.086614173228346455 0.094488188976377951 0.10236220472440945 0.11023622047244094 0.11811023622047244 0.12598425196850394 0.13385826771653545 0.14173228346456693 0.14960629921259844 0.15748031496062992 0.16535433070866143 0.17322834645669291 0.18110236220472442 0.1889763779527559 0.19685039370078741 0.20472440944881889 0.2125984251968504 0.22047244094488189 0.2283464566929134 0.23622047244094488 0.24409448818897639 0.25196850393700787 0.25984251968503935 0.26771653543307089 0.27559055118110237 0.28346456692913385 0.29133858267716534 0.29921259842519687 0.30708661417322836 0.31496062992125984 0.32283464566929132 0.33070866141732286 0.33858267716535434 0.34645669291338582 0.3543307086614173 0.36220472440944884 0.37007874015748032 0.37795275590551181 0.38582677165354329 0.39370078740157483 0.40157480314960631 0.40944881889763779 0.41732283464566927 0.42519685039370081 0.43307086614173229 0.44094488188976377 0.44881889763779526 0.45669291338582679 0.46456692913385828 0.47244094488188976 0.48031496062992124 0.48818897637795278 0.49606299212598426 0.50393700787401574 0.51181102362204722 0.51968503937007871 0.52755905511811019 0.53543307086614178 0.54330708661417326 0.55118110236220474 0.55905511811023623 0.56692913385826771 0.57480314960629919 0.58267716535433067 0.59055118110236215 0.59842519685039375 0.60629921259842523 0.61417322834645671 0.62204724409448819 0.62992125984251968 0.63779527559055116 0.64566929133858264 0.65354330708661412 0.66141732283464572 0.6692913385826772 0.67716535433070868 0.68503937007874016 0.69291338582677164 0.70078740157480313 0.70866141732283461 0.71653543307086609 0.72440944881889768 0.73228346456692917 0.74015748031496065 0.74803149606299213 0.75590551181102361 0.76377952755905509 0.77165354330708658 0.77952755905511806 0.78740157480314965 0.79527559055118113 0.80314960629921262 0.8110236220472441 0.81889763779527558 0.82677165354330706 0.83464566929133854 0.84251968503937003 0.85039370078740162 0.8582677165354331 0.86614173228346458 0.87401574803149606 0.88188976377952755 0.88976377952755903 0.89763779527559051 0.90551181102362199 0.91338582677165359 0.92125984251968507 0.92913385826771655 0.93700787401574803 0.94488188976377951 0.952755905511811 0.96062992125984248 0.96850393700787396 0.97637795275590555 0.98425196850393704 0.99212598425196852 1
        </DataArray>
      </PointData>
      <CellData Scalars="P">
        <DataArray type="Float32" Name="P" NumberOfComponents="1">
          0.028050448991362002 0.18615015693496209 0.40891002598038634 0.66393080597335785 0.94223053137703661 1.2350661022026328 1.5349123569482843 1.8348426586324262 2.1220114377229047 2.4059582921421634 2.690344523526794 2.9769025267093401 3.2623693315919589 3.5357070562330777 3.8053333535730633 4.0701693739177909 4.3162801389735028 4.5497042806074308 4.7590475317495251 4.9517785558058538 5.1181296906356373 5.2659962310125543 5.3876602564618459 5.4919152813625063 5.573540379049998 5.6422915996997114 5.7002698550213866 5.7568236648989748 5.8222380626246455 5.902882910592222 6.0066583121026147 6.1584468857423946 6.3567672535394761 6.6078728839335774 6.9263655976912357 7.355610408356176 7.8638776258284899 8.4406518631479166 9.0664442720482779 9.7262267851917859 10.398601260711049 11.056786110450947 11.684701304290078 12.265784272945085 12.787002627250001 13.260514481236097 13.709527984440392 14.157375362734559 14.622243519516646 15.115001781314533 15.638391809972676 16.18743365945134 16.750752286656677 17.312396407107826 17.856596524211373 18.368571397075456 18.840024143188113 19.275167344234134 19.672365815463145 20.032452340050831 20.362743086523952 20.655135890139906 20.912947666198921 21.131272234916676 21.2982498000354 21.415578678274635 21.480325705916361 21.487911666219656 21.432943731642034 21.310043546466893 21.114681680993275 20.844491696187365 20.499986003556796 20.084974240063062 19.606722133677383 19.07611900279505 18.507516136252331 17.91817146567551 17.30929163886551 16.70818950712567 16.130292456695866 15.594359704010039 15.121908820679497 14.736612074831314 14.463520028806748 14.328220359770974 14.355735850030682 14.569211988155962 14.988085706967558 15.627302861467612 16.494589894889032 17.589081689063295 18.899899797641524 20.405343640745343 22.073030117028754 23.861256278510862 25.721781225746501 27.604023369881983 29.460441032967822 31.252424324128285 32.956181270824501 34.596885532630111 36.127002777297484 37.550306256256953 38.920919215957753 40.220034390669603 41.463894190540408 42.669278820174448 43.861962452650971 44.958914442028977 45.851200381309553 46.470120686151255 46.673802084406645 46.288494963667667 45.152078252796152 43.134295058842021 40.187470633432675 36.399518691105506 31.897803583482016 27.017199788971411 21.98206792832173 17.043399143869458 12.15133326220567 6.1930262906446947 3.5601066399471066 1.5267983708937878 -0.029534360231375394
        </DataArray>
      </CellData>
      <Points>
        <DataArray type="Float32" NumberOfComponents="3" format="ascii">
          -28.784813497580974 9.1021045830647278 0
          -28.7769999459729 9.1030938967315436 0
          -28.769245523882905 9.1044715695158231 0
          -28.761567305974271 9.1062244889521278 0
          -28.753979707375603 9.1083351269227606 0
          -28.746496424439076 9.1107898386135755 0
          -28.739129715424479 9.1135746936580642 0
          -28.731890438876093 9.1166755609809336 0
          -28.724788230608933 9.1200784748360579 0
          -28.717828717145164 9.1237642595658208 0
          -28.711018148084108 9.1277183248684608 0
          -28.704361435933208 9.1319260925437256 0
          -28.697862521457097 9.1363735500081678 0
          -28.691523882497073 9.1410464576468957 0
          -28.685343225946063 9.145926264959467 0
          -28.679320291458065 9.1509993244078309 0
          -28.673454081214988 9.1562526954889609 0
          -28.667737724354243 9.1616686219938934 0
          -28.66216734763341 9.167234464604272 0
          -28.656732888436299 9.1729329811979952 0
          -28.651427914408892 9.1787521300208574 0
          -28.646239242046423 9.1846751184066786 0
          -28.641157966512399 9.1906904091525341 0
          -28.636167720079168 9.1967813534912146 0
          -28.631257828141138 9.2029371919688483 0
          -28.62640816920813 9.2091405438887204 0
          -28.621605628317202 9.2153804111821032 0
          -28.616826945053621 9.2216385517667447 0
          -28.612056706726758 9.227903135767022 0
          -28.607269383568319 9.2341547005899205 0
          -28.602446877004631 9.2403792180777096 0
          -28.597571226196816 9.2465622780421928 0
          -28.592612982156268 9.2526794212250163 0
          -28.587552300081256 9.2587122457806732 0
          -28.582370254906156 9.2646413423467919 0
          -28.577047375684678 9.2704445758146345 0
          -28.571553783256725 9.2760867696200311 0
          -28.565872801916768 9.2815405977377274 0
          -28.559988784227215 9.2867751524333713 0
          -28.553889557131722 9.2917577880210693 0
          -28.547565288679635 9.2964520879546981 0
          -28.541010217632515 9.3008190193580376 0
          -28.534224246470913 9.3048185861055188 0
          -28.527211868427333 9.3084074760469537 0
          -28.519984546364924 9.311542406588476 0
          -28.512561026957762 9.3141790293797158 0
          -28.504977268512707 9.3163109916942624 0
          -28.497269258161705 9.3179368102641664 0
          -28.489471948890483 9.3190578073451356 0
          -28.481619036347308 9.3196777849537931 0
          -28.47374280717737 9.3198027253140268 0
          -28.465874039618051 9.3194405543489651 0
          -28.458041930096662 9.318600964369022 0
          -28.450274022170021 9.3172953045955786 0
          -28.442596058003954 9.3155367824790822 0
          -28.435031952818289 9.3133398909368221 0
          -28.427603533623401 9.3107208891635498 0
          -28.4203304306434 9.307697451211224 0
          -28.413231521328143 9.3042852116479811 0
          -28.406323751435028 9.300501120779483 0
          -28.399622206359926 9.2963629217654908 0
          -28.393142407362479 9.291885599523928 0
          -28.38689615037644 9.2870879647332085 0
          -28.380895674901442 9.2819863817572887 0
          -28.375152025120478 9.2765973955815095 0
          -28.369671688079087 9.2709409493326653 0
          -28.364462071641487 9.265034330781118 0
          -28.359528934054353 9.2588950204588993 0
          -28.354876358555412 9.2525405570548482 0
          -28.350506689175162 9.2459884362406992 0
          -28.346420461513276 9.2392560059837638 0
          -28.34261632776602 9.2323603584106735 0
          -28.339090620016528 9.2253183965908629 0
          -28.335838022358299 9.2181463087470803 0
          -28.332851194414772 9.2108596472079469 0
          -28.330120769478722 9.2034731963128102 0
          -28.327635393930315 9.1960008434921114 0
          -28.325381795513447 9.188455467201722 0
          -28.323344893367487 9.1808488442857108 0
          -28.321513145346294 9.1731903385175837 0
          -28.319868363427574 9.1654896177733107 0
          -28.318390772348593 9.1577551734432507 0
          -28.317059043269253 9.1499943721817374 0
          -28.31585034294196 9.1422135372846611 0
          -28.314740394151585 9.1344180650892604 0
          -28.313703561442683 9.1266125778410387 0
          -28.312712944412624 9.1188011179464024 0
          -28.311740495827031 9.1109873815065736 0
          -28.310757166928358 9.1031749896037439 0
          -28.309733130653619 9.0953677869322274 0
          -28.308637911507436 9.0875701827213096 0
          -28.307440704799557 9.0797874885534604 0
          -28.306110697371736 9.0720262622410086 0
          -28.304617448009548 9.064294632590391 0
          -28.302931324156955 9.0566025841819009 0
          -28.301023983391975 9.0489621806445726 0
          -28.298868882627847 9.0413877061657804 0
          -28.296441788538399 9.0338957102121125 0
          -28.293721255902536 9.0265049491794365 0
          -28.290689031857021 9.0192362328233404 0
          -28.287330364705561 9.0121121901065031 0
          -28.283634163696959 9.0051569985031907 0
          -28.279586312504868 8.9984001221276824 0
          -28.275183365827569 8.9918687961728185 0
          -28.270426207406363 8.9855905007446282 0
          -28.265312289698322 8.9795989656928636 0
          -28.259849373034033 8.9739235923086085 0
          -28.254048608256159 8.9685938044043318 0
          -28.247924432214244 8.9636388445430963 0
          -28.241489268037377 8.9590949524123058 0
          -28.234765076857347 8.9549908009041168 0
          -28.22778173474326 8.9513450453605152 0
          -28.220566955655364 8.9481820216306751 0
          -28.213152235103159 8.9455215306123179 0
          -28.205574421239149 8.9433695695204314 0
          -28.197868594289844 8.9417349805021455 0
          -28.190072579519185 8.9406076623932851 0
          -28.18222168092154 8.9399682204090745 0
          -28.174347106263305 8.9397857028945769 0
          -28.166474351546825 8.9400284460733488 0
          -28.158622818176884 8.940652912921994 0
          -28.150806254357843 8.9416203174982343 0
          -28.143033931148583 8.9428948484186943 0
          -28.135314997084826 8.9444606011519472 0
          -28.1276766029107 8.946381645646543 0
          -28.120080392797874 8.9484637906571365 0
          -28.112526416704927 8.9506951304804048 0
          -28.105032625698538 8.9531220403374263 0
        </DataArray>
      </Points>
      <Cells>
        <DataArray type="Int32" Name="connectivity" format="ascii">
          0 1 1 2 2 3 3 4 4 5 5 6 6 7 7 8 8 9 9 10 10 11 11 12 12 13 13 14 14 15 15 16 16 17 17 18 18 19 19 20 20 21 21 22 22 23 23 24 24 25 25 26 26 27 27 28 28 29 29 30 30 31 31 32 32 33 33 34 34 35 35 36 36 37 37 38 38 39 39 40 40 41 41 42 42 43 43 44 44 45 45 46 46 47 47 48 48 49 49 50 50 51 51 52 52 53 53 54 54 55 55 56 56 57 57 58 58 59 59 60 60 61 61 62 62 63 63 64 64 65 65 66 66 67 67 68 68 69 69 70 70 71 71 72 72 73 73 74 74 75 75 76 76 77 77 78 78 79 79 80 80 81 81 82 82 83 83 84 84 85 85 86 86 87 87 88 88 89 89 90 90 91 91 92 92 93 93 94 94 95 95 96 96 97 97 98 98 99 99 100 100 101 101 102 102 103 103 104 104 105 105 106 106 107 107 108 108 109 109 110 110 111 111 112 112 113 113 114 114 115 115 116 116 117 117 118 118 119 119 120 120 121 121 122 122 123 123 124 124 125 125 126 126 127 
        </DataArray>
        <DataArray type="Int32" Name="offsets" format="ascii">
          2 4 6 8 10 12 14 16 18 20 22 24 26 28 30 32 34 36 38 40 42 44 46 48 50 52 54 56 58 60 62 64 66 68 70 72 74 76 78 80 82 84 86 88 90 92 94 96 98 100 102 104 106 108 110 112 114 116 118 120 122 124 126 128 130 132 134 136 138 140 142 144 146 148 150 152 154 156 158 160 162 164 166 168 170 172 174 176 178 180 182 184 186 188 190 192 194 196 198 200 202 204 206 208 210 212 214 216 218 220 222 224 226 228 230 232 234 236 238 240 242 244 246 248 250 252 254 
        </DataArray>
        <DataArray type="Int32" Name="types" format="ascii">
          3 3 3 3 3 3 3 3 3 3 3 3 3 3 3 3 3 3 3 3 3 3 3 3 3 3 3 3 3 3 3 3 3 3 3 3 3 3 3 3 3 3 3 3 3 3 3 3 3 3 3 3 3 3 3 3 3 3 3 3 3 3 3 3 3 3 3 3 3 3 3 3 3 3 3 3 3 3 3 3 3 3 3 3 3 3 3 3 3 3 3 3 3 3 3 3 3 3 3 3 3 3 3 3 3 3 3 3 3 3 3 3 3 3 3 3 3 3 3 3 3 3 3 3 3 3 3         </DataArray>
      </Cells>
    </Piece>
  </UnstructuredGrid>
</VTKFile>
<!-- DATA


-->
