<?xml version="1.0"?>
<VTKFile type="UnstructuredGrid" version="0.1" byte_order="LittleEndian">
  <UnstructuredGrid>
    <Piece NumberOfPoints="128" NumberOfCells="127">
      <PointData Scalars="u">
        <DataArray type="Float32" Name="Y" NumberOfComponents="2">

0 0
0.0060789918171843815 -0.025348101285225945
0.0018625242647409565 -0.033479269275246276
-0.0024865901435735397 -0.042883185007855588
-0.0064491848526069175 -0.053371127202295796
-0.0092012320857669319 -0.064252401108886234
-0.0098694293234728829 -0.074290246020085909
-0.0077794800563193997 -0.081734627549144553
-0.0026663932841733168 -0.084431394861210762
0.0051806644526763059 -0.079992833358781684
0.014857491757360288 -0.066003339518934084
0.024873801569255505 -0.040228098894250407
0.033264297181455717 -0.00079324169622408942
0.037762658866757823 0.053687560756839517
0.036011940670206272 0.12405452431075142
0.025782830291321928 0.21061351800314398
0.0051741358062622487 0.31320924645650977
-0.027223572950442747 0.43134252889289282
-0.072211877479502543 0.56430980322483637
-0.12991841098613091 0.71134234681388553
-0.19977649209381088 0.87172531151070509
-0.2805420273167506 1.0448814351780087
-0.37033771137272092 1.2304100572144607
-0.4667154273767673 1.428077861419494
-0.56673030737487595 1.6377629531106643
-0.66702329496254587 1.85935815095047
-0.76391239552155965 2.0926427091544624
-0.85349537094338412 2.3371341988640157
-0.93176790143742982 2.5919340992771693
-0.99476090726859856 2.8555818260278705
-1.0386987702161585 3.12593237299243
-1.0601768534988216 3.4000722676234614
-1.0563524681586833 3.6742869001883829
-1.0251389448950028 3.9440893073795147
-0.96538852076914605 4.2043161643850473
-0.87704710314762113 4.4492913075441214
-0.76126323872464707 4.6730510776641943
-0.62043512324012129 4.8696198564364481
-0.45818320516811523 5.0333191670459358
-0.27924146086771084 5.1590903551541922
-0.089267046863751628 5.2428096619342863
0.10542509084769512 5.281575617338758
0.29818978627976261 5.2739519276556752
0.48242348373398314 5.220153909458177
0.65195890702797021 5.1221723557032428
0.80145913530434343 4.983834812486422
0.92678672432883125 4.8108100282157826
1.0253229787035214 4.610566463134278
1.0962114937315006 4.3923000935894789
1.1404977439263237 4.1668503075289767
1.1611319259275703 3.9466253472686939
1.0858700184575734 3.7689429374805323
0.92810141716544403 3.6299033821004398
0.78675313202961716 3.4941983566746218
0.65943030662196267 3.3583206428790322
0.54456211775309904 3.2194750965641563
0.44117277776856823 3.0755791611315635
0.34868908365126128 2.9252330673181164
0.26678113917338458 2.7676685480035705
0.19523383200054528 2.6026829410756642
0.133847075905382 2.4305642773951144
0.082362844761751805 2.2520120257478755
0.04041677335270133 2.068057386844536
0.0075117200406523248 1.8799862840022405
-0.016989703012548707 1.6892674491300308
-0.03385693840363567 1.4974872556656735
-0.04397111669977654 1.3062922376782724
-0.048296024556309491 1.1173395979328815
-0.047843787609971385 0.93225548497971544
-0.043638380935628572 0.75260043607560578
-0.036679704804927819 0.57984114889246641
-0.027910511462237317 0.41532765434032293
-0.018187971655242621 0.26027499534248427
-0.0082611561222819697 0.11574864204738196
0.0012447993241924112 -0.017346942413147506
0.0098375547615954535 -0.13827696574365173
0.017159596983350726 -0.24648238429141056
0.022983959318975664 -0.34158341926100871
0.027204456283727613 -0.42338042844291224
0.029821486806277778 -0.49185200380400562
0.030924606216214779 -0.54715017783568609
0.030673128681014617 -0.58959268505347628
0.029276003713804323 -0.61965232551184823
0.026972118691322461 -0.63794359806391243
0.024012027012205058 -0.64520689521577668
0.020641903250149928 -0.64229066355791542
0.017090299987728454 -0.63013202202412644
0.013558043902389488 -0.60973638712224154
0.010211378308871328 -0.58215667685533057
0.0071782508212071784 -0.54847265452576099
0.0045474696956557936 -0.50977093449629129
0.0023703186866254958 -0.46712611091243067
0.00066413151787015072 -0.42158339494516395
-0.00058271635202145468 -0.37414306371135503
-0.001404943153423684 -0.32574694110865687
-0.0018541343902315475 -0.27726705227124432
-0.0019926031475025105 -0.22949652242141144
-0.0018877057999890248 -0.18314272910417337
-0.0016068882963699365 -0.13882266435488383
-0.00121364452561131 -0.097060419460872738
-0.000764476425524729 -0.058286668346417506
-0.00030686489205191162 -0.022839994744874078
0.0001218077184780331 0.009030118048225913
0.00049449385560378751 0.037158838874038737
0.00079402176329144427 0.061460305609463271
0.0010121051620413971 0.08192094764957189
0.001147989721239491 0.098592067493681657
0.0012068958828584915 0.11158194394750168
0.0011983993309445115 0.12104772349644276
0.0011348663650814505 0.12718736466670769
0.0010300332119873882 0.13023189195056745
0.00089779051397162663 0.13043820052653085
0.00075120712288193568 0.12808263018936422
0.00060180458981132147 0.12345549642694881
0.00045907498609164775 0.11685672849744587
0.00033022118885013362 0.10859271891307591
0.0002200905391860682 0.098974436378345479
0.00013126864989625032 0.088316795615012614
6.4299733718919675e-05 0.076939213488213726
1.8002142561508468e-05 0.06516721250945226
-1.0149611752286271e-05 0.053334861455874044
-2.3601715360551679e-05 0.041787770091529099
-2.6281732340746806e-05 0.030886282668217288
-2.2168749464000648e-05 0.021008445160819147
-1.4904046433475757e-05 0.012552256467915239
-7.4810917120327715e-06 0.0059366567330031966
-2.0645726663189459e-06 0.0016006593461546331
0 0

        </DataArray>
        <DataArray type="Float32" Name="W" NumberOfComponents="2">

-0.17742490972373978 0.031972171451221276
-0.17361328277530155 0.025082168319759769
-0.16936473782325465 0.018452642571608672
-0.16467252987742756 0.012129350260894463
-0.15953927330135981 0.0061585377925538832
-0.15397689976934628 0.00058529870922278742
-0.14800621567417827 -0.0045481188471771317
-0.14165606633606645 -0.0092039410140745889
-0.13496214500336964 -0.013350325787090967
-0.12796551250177016 -0.016962557336944035
-0.12071091506358671 -0.020023909100302835
-0.11324500096330517 -0.022526136955095723
-0.10561454004061029 -0.02446959478950635
-0.097864744317454413 -0.025862994005708781
-0.090037774183624728 -0.026722853032697901
-0.082171495301775588 -0.027072700725158983
-0.074298529088139734 -0.026942107610049854
-0.066445616916716438 -0.026365621330132347
-0.058633297239539188 -0.025381678177426439
-0.050875877184523764 -0.024031552742172588
-0.043181666781907171 -0.022358394163096585
-0.035553435033485618 -0.020406382049146774
-0.027989042295871937 -0.018220019510631447
-0.020482202243983866 -0.015843566279372622
-0.013023328154793463 -0.01332060266512905
-0.0056004215044689488 -0.010693705783176594
0.0018000349012549681 -0.0080042134476768344
0.0091922124618266463 -0.0052920484040808258
0.016590129628095158 -0.0025955759580133502
0.024006926336015578 4.85288786716059e-05
0.031454240075604059 0.0026054234552259493
0.038941699397435026 0.0050422609720742577
0.046476546204228128 0.0073283804893038993
0.054063393371035891 0.0094355216301559228
0.061704119062317118 0.011338056158369669
0.069397893698317156 0.01301322412997425
0.077141330145761702 0.014441359769656862
0.084928742756048559 0.0156060917756477
0.092752496775603877 0.016494504346119179
0.10060342679691213 0.017097248549589925
0.10847130158146071 0.017408598262404752
0.11634531287776628 0.017426450198486983
0.12421456769833618 0.017152272974779822
0.13206856664400721 0.016591015168528699
0.13989765485508773 0.015750986534958704
0.14769343650297462 0.014643729735992419
0.15544914783485517 0.01328390202839992
0.16315998705604556 0.011689187481377466
0.17082340120097272 0.009880260675699009
0.17843933004560403 0.0078808227948827057
0.186010404496674 0.0057177308832255334
0.1935420911731455 0.0034212410754100339
0.20114110236226407 0.0013584262756667052
0.20879765635921135 -0.00047933395087470338
0.21650298949981114 -0.0021004532997940684
0.22424920768215617 -0.0035133561782032408
0.23202918897955394 -0.0047266510062905706
0.23983652314650405 -0.0057492593375732381
0.24766547608531267 -0.0065905026453870249
0.25551096939770018 -0.0072601499553124555
0.26336856705261769 -0.0077684304092658311
0.27123446298499448 -0.0081260154059766207
0.27910546510131184 -0.008343975231882907
0.28697897269112904 -0.008433715124451558
0.29485294560540537 -0.0084068955427249042
0.30272586473852509 -0.0082753411039544564
0.31059668432198978 -0.0080509422268230119
0.31846477729265932 -0.0077455530451576394
0.32632987553568688 -0.0073708886606627033
0.33419200712999497 -0.0069384243214703229
0.34205143285883027 -0.0064592986689819883
0.3499085842128789 -0.0059442228030616214
0.35776400493664717 -0.0054033965807569967
0.36561829788112227 -0.0048464332843572485
0.37347207855897757 -0.0042822935629465639
0.38132593638417545 -0.0037192293563005226
0.38918040414540639 -0.0031647383382309188
0.39703593583930119 -0.0026255292561789935
0.40489289259804773 -0.002107498385063182
0.41275153610592946 -0.0016157171494502601
0.42061202862453556 -0.0011544307961363861
0.4284744385460314 -0.00072706781997535083
0.43633875027175573 -0.00033625966321144084
0.44420487716839241 1.6129971105401219e-05
0.45207267638037707 0.0003289670203290736
0.45994196436559004 0.00060180115795076608
0.46781253215947644 0.00083481318990153829
0.47568415954644727 0.0010287569530944493
0.48355662751207001 0.001184896979452815
0.49142972855085471 0.0013049432147979067
0.49930327459946089 0.0013909840732991942
0.50717710254302151 0.0014454190671486648
0.515051077394727 0.0014708921814948195
0.52292509337032056 0.0014702270711399027
0.53079907316703101 0.0014463650431754788
0.53867296581059276 0.0014023066637484643
0.54654674345643794 0.0013410576923814665
0.55442039752575834 0.0012655799081159839
0.56229393452890597 0.0011787472520355085
0.57016737188328825 0.0010833075737090917
0.57804073397636535 0.00098185013749522575
0.58591404866223329 0.00087677892073205997
0.59378734431760649 0.00077029162152621579
0.60166064752399862 0.00066436419077367623
0.60953398139074733 0.00056074061261724036
0.61740736449040923 0.00046092758098824983
0.62528081034511096 0.00036619365822697988
0.6331543273799215 0.00027757245584059793
0.6410279192466819 0.00019586934779777904
0.6489015854178678 0.00012167121362535506
0.65677532195346211 5.5358711857281361e-05
0.66464912235274631 -2.8793964211545068e-06
0.67252297841563802 -5.3030320041987133e-05
0.68039688105304941 -9.5240104653347026e-05
0.68827082100128079 -0.00012979563312257773
0.69614478941055624 -0.0001571060298838121
0.70401877829160597 -0.00017768366456277914
0.7118927808161849 -0.00019212487187719287
0.71976679147734968 -0.00020109042688384057
0.72764080612316417 -0.00020528574109257634
0.73551482188339801 -0.00020544068002982958
0.74338883701291203 -0.00020228885093287531
0.75126285067796517 -0.00019654617490168734
0.75913686271268266 -0.00018888854551083478
0.76701087337233642 -0.00017992838991238782
0.77488488310757175 -0.00017018999285506304
0.78275889237880081 -0.00016008352234353476
0.79063290152197596 -0.00014987781075390474

        </DataArray>
        <DataArray type="Float32" Name="u" NumberOfComponents="1">
          0 0.007874015748031496 0.015748031496062992 0.023622047244094488 0.031496062992125984 0.03937007874015748 0.047244094488188976 0.055118110236220472 0.062992125984251968 0.070866141732283464 0.07874015748031496 0.086614173228346455 0.094488188976377951 0.10236220472440945 0.11023622047244094 0.11811023622047244 0.12598425196850394 0.13385826771653545 0.14173228346456693 0.14960629921259844 0.15748031496062992 0.16535433070866143 0.17322834645669291 0.18110236220472442 0.1889763779527559 0.19685039370078741 0.20472440944881889 0.2125984251968504 0.22047244094488189 0.2283464566929134 0.23622047244094488 0.24409448818897639 0.25196850393700787 0.25984251968503935 0.26771653543307089 0.27559055118110237 0.28346456692913385 0.29133858267716534 0.29921259842519687 0.30708661417322836 0.31496062992125984 0.32283464566929132 0.33070866141732286 0.33858267716535434 0.34645669291338582 0.3543307086614173 0.36220472440944884 0.37007874015748032 0.37795275590551181 0.38582677165354329 0.39370078740157483 0.40157480314960631 0.40944881889763779 0.41732283464566927 0.42519685039370081 0.43307086614173229 0.44094488188976377 0.44881889763779526 0.45669291338582679 0.46456692913385828 0.47244094488188976 0.48031496062992124 0.48818897637795278 0.49606299212598426 0.50393700787401574 0.51181102362204722 0.51968503937007871 0.52755905511811019 0.53543307086614178 0.54330708661417326 0.55118110236220474 0.55905511811023623 0.56692913385826771 0.57480314960629919 0.58267716535433067 0.59055118110236215 0.59842519685039375 0.60629921259842523 0.61417322834645671 0.62204724409448819 0.62992125984251968 0.63779527559055116 0.64566929133858264 0.65354330708661412 0.66141732283464572 0.6692913385826772 0.67716535433070868 0.68503937007874016 0.69291338582677164 0.70078740157480313 0.70866141732283461 0.71653543307086609 0.72440944881889768 0.73228346456692917 0.74015748031496065 0.74803149606299213 0.75590551181102361 0.76377952755905509 0.77165354330708658 0.77952755905511806 0.78740157480314965 0.79527559055118113 0.80314960629921262 0.8110236220472441 0.81889763779527558 0.82677165354330706 0.83464566929133854 0.84251968503937003 0.85039370078740162 0.8582677165354331 0.86614173228346458 0.87401574803149606 0.88188976377952755 0.88976377952755903 0.89763779527559051 0.90551181102362199 0.91338582677165359 0.92125984251968507 0.92913385826771655 0.93700787401574803 0.94488188976377951 0.952755905511811 0.96062992125984248 0.96850393700787396 0.97637795275590555 0.98425196850393704 0.99212598425196852 1
        </DataArray>
      </PointData>
      <CellData Scalars="P">
        <DataArray type="Float32" Name="P" NumberOfComponents="1">
          0.0029603930336458604 0.0095209044916158281 0.010892480977890967 0.0067388610350531822 0.0024831605054692735 0.0088164630144483887 0.040571227881992876 0.11513197086808179 0.25058580755363802 0.46382285500560821 0.76878086906310117 1.1749931117319732 1.6865494483572503 2.3015258140166273 3.011884281422248 3.8038015467069521 4.6583520699879308 5.5524551483500542 6.4599922173842961 7.3530091087180898 8.2029340527094696 8.981761658958888 9.6631718993987867 10.223567983924813 10.643025808890707 10.906149545258383 11.002823424211485 10.92884057655426 10.686378495032155 10.284280410299173 9.7380956791102022 9.0698327049860534 8.3073864448360641 7.4836193340786705 6.6350981536044644 5.800517333203179 5.0188679471510582 4.3274374905382196 3.7597451893608178 3.3435289679211659 3.0989027091350407 3.0367972741577032 3.1577887182348388 3.4514063768832877 3.8960069227903262 4.4593032063987517 5.0996532697281491 5.7682486530314501 6.4123931216340599 6.9801311400723565 7.4265632070772618 6.7263016761605803 6.1079183709373064 5.5459036707409961 5.0220362368084102 4.5239347287510991 4.0439210728451931 3.5780821317507621 3.125457216969501 2.6873095264646572 2.2664616025375035 1.8666896636376586 1.492180513907275 1.147058949319641 0.83499433137667511 0.55889333630484439 0.32068271541937027 0.12118197414776603 -0.039938208147601913 -0.16411978729889118 -0.25381454456656755 -0.31232818377040078 -0.34362632407605842 -0.35211790646206381 -0.34243116721271794 -0.3191961623772982 -0.28684598078501589 -0.24944641663340866 -0.21056116228485008 -0.17315671384525649 -0.13954834150557963 -0.11138583626476679 -0.089675453835808258 -0.074832651442672704 -0.06675892976899965 -0.064935382547911855 -0.068525408632916285 -0.076479404869173845 -0.087635049677382781 -0.10080790159419128 -0.11486835708107124 -0.12880241968347339 -0.14175511845074748 -0.15305668366225561 -0.16223266962842223 -0.16900005865350701 -0.17325196227445197 -0.17503385328380225 -0.17451433192786811 -0.17195328455019818 -0.16766997608635903 -0.1620131784870168 -0.15533492614582114 -0.14796895507323174 -0.14021436752572222 -0.13232460263825743 -0.12450141136133318 -0.1168932456700779 -0.10959728286404606 -0.10266421240015892 -0.096104904593197732 -0.089898142018017033 -0.083998706808531332 -0.078345260436156791 -0.072867607795457062 -0.067493087405703617 -0.062151960124345845 -0.056781769341023733 -0.05133070922440252 -0.045760060878555574 -0.040045739370689434 -0.034178941164871197 -0.028165798987038113 -0.022025851450052862 -0.015789035166172596 -0.0094908312505687775 -0.0031651768428005047
        </DataArray>
      </CellData>
      <Points>
        <DataArray type="Float32" NumberOfComponents="3" format="ascii">
          -0.17742490972373978 0.031972171451221276 0
          -0.17361328277530155 0.025082168319759769 0
          -0.16936473782325465 0.018452642571608672 0
          -0.16467252987742756 0.012129350260894463 0
          -0.15953927330135981 0.0061585377925538832 0
          -0.15397689976934628 0.00058529870922278742 0
          -0.14800621567417827 -0.0045481188471771317 0
          -0.14165606633606645 -0.0092039410140745889 0
          -0.13496214500336964 -0.013350325787090967 0
          -0.12796551250177016 -0.016962557336944035 0
          -0.12071091506358671 -0.020023909100302835 0
          -0.11324500096330517 -0.022526136955095723 0
          -0.10561454004061029 -0.02446959478950635 0
          -0.097864744317454413 -0.025862994005708781 0
          -0.090037774183624728 -0.026722853032697901 0
          -0.082171495301775588 -0.027072700725158983 0
          -0.074298529088139734 -0.026942107610049854 0
          -0.066445616916716438 -0.026365621330132347 0
          -0.058633297239539188 -0.025381678177426439 0
          -0.050875877184523764 -0.024031552742172588 0
          -0.043181666781907171 -0.022358394163096585 0
          -0.035553435033485618 -0.020406382049146774 0
          -0.027989042295871937 -0.018220019510631447 0
          -0.020482202243983866 -0.015843566279372622 0
          -0.013023328154793463 -0.01332060266512905 0
          -0.0056004215044689488 -0.010693705783176594 0
          0.0018000349012549681 -0.0080042134476768344 0
          0.0091922124618266463 -0.0052920484040808258 0
          0.016590129628095158 -0.0025955759580133502 0
          0.024006926336015578 4.85288786716059e-05 0
          0.031454240075604059 0.0026054234552259493 0
          0.038941699397435026 0.0050422609720742577 0
          0.046476546204228128 0.0073283804893038993 0
          0.054063393371035891 0.0094355216301559228 0
          0.061704119062317118 0.011338056158369669 0
          0.069397893698317156 0.01301322412997425 0
          0.077141330145761702 0.014441359769656862 0
          0.084928742756048559 0.0156060917756477 0
          0.092752496775603877 0.016494504346119179 0
          0.10060342679691213 0.017097248549589925 0
          0.10847130158146071 0.017408598262404752 0
          0.11634531287776628 0.017426450198486983 0
          0.12421456769833618 0.017152272974779822 0
          0.13206856664400721 0.016591015168528699 0
          0.13989765485508773 0.015750986534958704 0
          0.14769343650297462 0.014643729735992419 0
          0.15544914783485517 0.01328390202839992 0
          0.16315998705604556 0.011689187481377466 0
          0.17082340120097272 0.009880260675699009 0
          0.17843933004560403 0.0078808227948827057 0
          0.186010404496674 0.0057177308832255334 0
          0.1935420911731455 0.0034212410754100339 0
          0.20114110236226407 0.0013584262756667052 0
          0.20879765635921135 -0.00047933395087470338 0
          0.21650298949981114 -0.0021004532997940684 0
          0.22424920768215617 -0.0035133561782032408 0
          0.23202918897955394 -0.0047266510062905706 0
          0.23983652314650405 -0.0057492593375732381 0
          0.24766547608531267 -0.0065905026453870249 0
          0.25551096939770018 -0.0072601499553124555 0
          0.26336856705261769 -0.0077684304092658311 0
          0.27123446298499448 -0.0081260154059766207 0
          0.27910546510131184 -0.008343975231882907 0
          0.28697897269112904 -0.008433715124451558 0
          0.29485294560540537 -0.0084068955427249042 0
          0.30272586473852509 -0.0082753411039544564 0
          0.31059668432198978 -0.0080509422268230119 0
          0.31846477729265932 -0.0077455530451576394 0
          0.32632987553568688 -0.0073708886606627033 0
          0.33419200712999497 -0.0069384243214703229 0
          0.34205143285883027 -0.0064592986689819883 0
          0.3499085842128789 -0.0059442228030616214 0
          0.35776400493664717 -0.0054033965807569967 0
          0.36561829788112227 -0.0048464332843572485 0
          0.37347207855897757 -0.0042822935629465639 0
          0.38132593638417545 -0.0037192293563005226 0
          0.38918040414540639 -0.0031647383382309188 0
          0.39703593583930119 -0.0026255292561789935 0
          0.40489289259804773 -0.002107498385063182 0
          0.41275153610592946 -0.0016157171494502601 0
          0.42061202862453556 -0.0011544307961363861 0
          0.4284744385460314 -0.00072706781997535083 0
          0.43633875027175573 -0.00033625966321144084 0
          0.44420487716839241 1.6129971105401219e-05 0
          0.45207267638037707 0.0003289670203290736 0
          0.45994196436559004 0.00060180115795076608 0
          0.46781253215947644 0.00083481318990153829 0
          0.47568415954644727 0.0010287569530944493 0
          0.48355662751207001 0.001184896979452815 0
          0.49142972855085471 0.0013049432147979067 0
          0.49930327459946089 0.0013909840732991942 0
          0.50717710254302151 0.0014454190671486648 0
          0.515051077394727 0.0014708921814948195 0
          0.52292509337032056 0.0014702270711399027 0
          0.53079907316703101 0.0014463650431754788 0
          0.53867296581059276 0.0014023066637484643 0
          0.54654674345643794 0.0013410576923814665 0
          0.55442039752575834 0.0012655799081159839 0
          0.56229393452890597 0.0011787472520355085 0
          0.57016737188328825 0.0010833075737090917 0
          0.57804073397636535 0.00098185013749522575 0
          0.58591404866223329 0.00087677892073205997 0
          0.59378734431760649 0.00077029162152621579 0
          0.60166064752399862 0.00066436419077367623 0
          0.60953398139074733 0.00056074061261724036 0
          0.61740736449040923 0.00046092758098824983 0
          0.62528081034511096 0.00036619365822697988 0
          0.6331543273799215 0.00027757245584059793 0
          0.6410279192466819 0.00019586934779777904 0
          0.6489015854178678 0.00012167121362535506 0
          0.65677532195346211 5.5358711857281361e-05 0
          0.66464912235274631 -2.8793964211545068e-06 0
          0.67252297841563802 -5.3030320041987133e-05 0
          0.68039688105304941 -9.5240104653347026e-05 0
          0.68827082100128079 -0.00012979563312257773 0
          0.69614478941055624 -0.0001571060298838121 0
          0.70401877829160597 -0.00017768366456277914 0
          0.7118927808161849 -0.00019212487187719287 0
          0.71976679147734968 -0.00020109042688384057 0
          0.72764080612316417 -0.00020528574109257634 0
          0.73551482188339801 -0.00020544068002982958 0
          0.74338883701291203 -0.00020228885093287531 0
          0.75126285067796517 -0.00019654617490168734 0
          0.75913686271268266 -0.00018888854551083478 0
          0.76701087337233642 -0.00017992838991238782 0
          0.77488488310757175 -0.00017018999285506304 0
          0.78275889237880081 -0.00016008352234353476 0
          0.79063290152197596 -0.00014987781075390474 0
        </DataArray>
      </Points>
      <Cells>
        <DataArray type="Int32" Name="connectivity" format="ascii">
          0 1 1 2 2 3 3 4 4 5 5 6 6 7 7 8 8 9 9 10 10 11 11 12 12 13 13 14 14 15 15 16 16 17 17 18 18 19 19 20 20 21 21 22 22 23 23 24 24 25 25 26 26 27 27 28 28 29 29 30 30 31 31 32 32 33 33 34 34 35 35 36 36 37 37 38 38 39 39 40 40 41 41 42 42 43 43 44 44 45 45 46 46 47 47 48 48 49 49 50 50 51 51 52 52 53 53 54 54 55 55 56 56 57 57 58 58 59 59 60 60 61 61 62 62 63 63 64 64 65 65 66 66 67 67 68 68 69 69 70 70 71 71 72 72 73 73 74 74 75 75 76 76 77 77 78 78 79 79 80 80 81 81 82 82 83 83 84 84 85 85 86 86 87 87 88 88 89 89 90 90 91 91 92 92 93 93 94 94 95 95 96 96 97 97 98 98 99 99 100 100 101 101 102 102 103 103 104 104 105 105 106 106 107 107 108 108 109 109 110 110 111 111 112 112 113 113 114 114 115 115 116 116 117 117 118 118 119 119 120 120 121 121 122 122 123 123 124 124 125 125 126 126 127 
        </DataArray>
        <DataArray type="Int32" Name="offsets" format="ascii">
          2 4 6 8 10 12 14 16 18 20 22 24 26 28 30 32 34 36 38 40 42 44 46 48 50 52 54 56 58 60 62 64 66 68 70 72 74 76 78 80 82 84 86 88 90 92 94 96 98 100 102 104 106 108 110 112 114 116 118 120 122 124 126 128 130 132 134 136 138 140 142 144 146 148 150 152 154 156 158 160 162 164 166 168 170 172 174 176 178 180 182 184 186 188 190 192 194 196 198 200 202 204 206 208 210 212 214 216 218 220 222 224 226 228 230 232 234 236 238 240 242 244 246 248 250 252 254 
        </DataArray>
        <DataArray type="Int32" Name="types" format="ascii">
          3 3 3 3 3 3 3 3 3 3 3 3 3 3 3 3 3 3 3 3 3 3 3 3 3 3 3 3 3 3 3 3 3 3 3 3 3 3 3 3 3 3 3 3 3 3 3 3 3 3 3 3 3 3 3 3 3 3 3 3 3 3 3 3 3 3 3 3 3 3 3 3 3 3 3 3 3 3 3 3 3 3 3 3 3 3 3 3 3 3 3 3 3 3 3 3 3 3 3 3 3 3 3 3 3 3 3 3 3 3 3 3 3 3 3 3 3 3 3 3 3 3 3 3 3 3 3         </DataArray>
      </Cells>
    </Piece>
  </UnstructuredGrid>
</VTKFile>
<!-- DATA


-->
