<?xml version="1.0"?>
<VTKFile type="UnstructuredGrid" version="0.1" byte_order="LittleEndian">
  <UnstructuredGrid>
    <Piece NumberOfPoints="128" NumberOfCells="127">
      <PointData Scalars="u">
        <DataArray type="Float32" Name="Y" NumberOfComponents="2">

0 0
0.15097444642194813 -0.1271339454752127
0.13647095540073886 -0.16865221110574607
0.1287081802654067 -0.20449393846693076
0.12671757545920537 -0.23647461723691429
0.12927323546189196 -0.26570585689434817
0.13565790944339415 -0.29302877968668389
0.14401099594730191 -0.31908540004669905
0.15622498570782328 -0.34407666155085037
0.17120050401493384 -0.36735764975144691
0.1871609216038265 -0.38885477292662718
0.20620428762389853 -0.40784269046578142
0.22659857614186768 -0.42386959388318751
0.2470065199204631 -0.43747975242326637
0.26786497198673631 -0.44891901651935701
0.2902637696325942 -0.45729397812346806
0.31125834399248559 -0.46348259967713984
0.33310066395682858 -0.46672259521368747
0.35325834195357803 -0.4688686334589991
0.37323519955457329 -0.47036000266657091
0.39408393368039113 -0.47089183380721661
0.41414046922587966 -0.47249223544878349
0.43628162972318474 -0.47453668450399311
0.45944915142882398 -0.47976633604710717
0.48579048476365683 -0.48918823181044863
0.5163144566203941 -0.50304438445126176
0.5517869011964317 -0.51977760774938064
0.59030083918768128 -0.54066596946524903
0.63319120276874219 -0.56354292524769811
0.67839268063286529 -0.58951870479249446
0.72632751713506993 -0.61678115870735228
0.77485525363316399 -0.64597579683587469
0.82346417954980433 -0.67522467932050523
0.86965714881976164 -0.7049684052347438
0.91223311030918508 -0.733396046718646
0.94867112343578719 -0.76023724139344817
0.97715871166848001 -0.78403741169105723
0.99598374649505683 -0.80376641886201494
1.0035169616316368 -0.81922405593493075
0.99720952365778226 -0.82824434856864615
0.97702084648014109 -0.82787273415019513
0.94213959160351257 -0.81838462600059569
0.89152106509922446 -0.79838539121326701
0.82960669590887592 -0.76449990135407264
0.75869541745025104 -0.71979177802976302
0.68363221989327072 -0.66513296953032586
0.60879135980700672 -0.60244133889408957
0.53856985172375105 -0.53364606439783402
0.47752978176609195 -0.46051034333870278
0.4335026598506948 -0.38193461404190165
0.38914839395832868 -0.30528430563970849
0.35375699527462862 -0.22045118499696764
0.29585518837600633 -0.14530357427688975
0.24952358609467029 -0.062107704986856339
0.21354378956409045 0.027915598555450997
0.19056180203295361 0.12315229715506837
0.17934189163938483 0.22053604164064333
0.18059296328370228 0.31746400999999097
0.19397442628446021 0.41107201511427288
0.21925445577639788 0.49857068743115934
0.25343104504014513 0.57818357712032642
0.29658523473222637 0.6486627187772489
0.34562393178721601 0.70994912457521986
0.40081154080890413 0.76182046052708174
0.45939367036294271 0.80520206025670327
0.52198368381940785 0.84003903734150021
0.58703490625231292 0.86692306493334048
0.65390445997836966 0.88651560969370136
0.7230858408696107 0.89908504309299331
0.7933210171505537 0.90686115107612253
0.86598224585410877 0.91131235137127409
0.94217062828670506 0.91396819639407467
1.0230901375566936 0.91611668866569151
1.1102081256424436 0.91845318333326931
1.205598667943534 0.9205373988843959
1.3098487188760024 0.92430431783156897
1.4256849926808992 0.9301575628022154
1.555455872272661 0.93825082022476736
1.701102391758301 0.94855482778326283
1.8643247710429647 0.96071706731234985
2.0464282071659903 0.97420951401870626
2.2481844067052408 0.98853664862905077
2.4704305927949721 1.0017015876512754
2.7128905235316747 1.014788975741262
2.9762492435170489 1.0278714369311204
3.2604730048254758 1.0414076360931035
3.5648513918356608 1.0561440730511678
3.8879144776591108 1.0733298232217545
4.2274240045044102 1.0943912977270975
4.580660847154979 1.1196938055755068
4.9445608560338714 1.1522353630278361
5.3163875751357796 1.1956702257402259
5.6929551592103795 1.2532109986388571
6.0705260124196698 1.3283594696266769
6.444898495325039 1.4244633598215666
6.8115626534576155 1.5445288230940497
7.1659493275567048 1.6914005954720277
7.5037173878346728 1.8675360545506079
7.8210464173130791 2.0749763740298577
8.1149342015982331 2.3154163998673911
8.3834511949778356 2.5903840406271832
8.6258891381405505 2.9015349584914651
8.8427327744194244 3.2509902746630122
9.0354239915979946 3.6416647500154666
9.2057630025517359 4.0776959446766918
9.3549878740480406 4.5645503474067173
9.4824870109806589 5.1088050819123643
9.5842976371803825 5.7173643411776833
9.6514225408012937 6.3961194332256932
9.6685372799848661 7.1475188381684349
9.6147656867472993 7.9655609835245862
9.4660953772937741 8.8337832652543788
9.1902185303827011 9.7277103018953923
8.764458296157235 10.599283110014289
8.1705036550755246 11.388556809350113
7.4067265437743677 12.020350087473476
6.4915463882721776 12.412464049544633
5.4667030936755543 12.482652117486889
4.4017690849688371 12.161091586977792
3.3652642587021204 11.407421298955496
2.4634070523728853 10.205336778108183
1.8039338832014484 8.6100606937214508
1.3170294384801837 6.7808639368381591
0.87697151829845932 4.9001465608474257
0.50329037040706792 3.1158173190549925
0.22801890582507628 1.5738277168594288
0.0066809264043929369 0.46280615258056518
0 0

        </DataArray>
        <DataArray type="Float32" Name="W" NumberOfComponents="2">

-31.424845576699312 9.8428489027248265
-31.41774249751915 9.8394455189804155
-31.410444225145525 9.8364839085011884
-31.402979861011563 9.8339702764560606
-31.395378843395495 9.8319066051510351
-31.387669779618594 9.8302930276416802
-31.3798803724032 9.8291279207728248
-31.372037328859058 9.8284081971324682
-31.364166461596184 9.8281258614076901
-31.356292000193431 9.8282742171013293
-31.34843696246995 9.8288455174515104
-31.340622661365238 9.8298270971694617
-31.332869181046792 9.8312088055914568
-31.325195182275454 9.8329791369307635
-31.317617013990546 9.835122596869093
-31.310148903978231 9.837622414091868
-31.302804664442231 9.8404654050642151
-31.295594838768846 9.8436336139005931
-31.288530081874729 9.8471131302240646
-31.281617197764657 9.8508852035001944
-31.274861159059832 9.8549313275026247
-31.268267377907986 9.8592366637441575
-31.261836733113025 9.8637819215631204
-31.25557169767777 9.868552729647968
-31.249469689800659 9.8735302297996608
-31.243525420184547 9.8786949574824767
-31.237731795112804 9.8840280086760703
-31.232084150436485 9.8895153090595631
-31.226571012551382 9.8951376344745281
-31.221184585944947 9.9008813785768321
-31.215910261768006 9.9067281489907089
-31.210736947495842 9.9126644084557221
-31.205646916954382 9.9186721695151299
-31.20062744173908 9.924738952663029
-31.195657510960629 9.9308463505604561
-31.190722938984237 9.9369823286114389
-31.185800849800014 9.9431283160884103
-31.180876356299109 9.9492723863792918
-31.175926490449285 9.9553960631737937
-31.170927014110465 9.961479356252692
-31.165863519039608 9.9675095435273207
-31.160712223891458 9.9734650085789553
-31.15544977281959 9.9793226245125286
-31.150063258201239 9.9850665395998135
-31.144531243950667 9.9906706836494337
-31.138834352541352 9.9961074169596831
-31.132953528141904 10.001344988678806
-31.126871512225662 10.006347948398087
-31.120573550563144 10.011076713278227
-31.114047028189113 10.015485330971627
-31.107275141496935 10.01950775244396
-31.100267330686847 10.02310451446805
-31.09303082775677 10.026215553039149
-31.085602653229106 10.028836023143587
-31.078018300210186 10.030962294339014
-31.070312851869222 10.032595711271894
-31.062519560041284 10.033738070902771
-31.054670583823203 10.034395553388439
-31.046796306945446 10.034576678305235
-31.038925214528714 10.034291479297526
-31.031084101508323 10.033549266441369
-31.023297938268648 10.032362588257529
-31.015590317327799 10.030742754867338
-31.007982834176239 10.028704047431386
-31.00049607258314 10.026259157242587
-30.99314841908722 10.023423646990942
-30.985957609633555 10.020211246975082
-30.978940138889367 10.016636118145797
-30.972111282686086 10.012712803639365
-30.965486508685032 10.008454010983129
-30.959078886817721 10.003875080241274
-30.952900183178993 9.9989917294032313
-30.946960779802417 9.9938200541795776
-30.941269381842556 9.9883767163358517
-30.935833312300101 9.9826784506033341
-30.930660602807894 9.9767401630919874
-30.92575539613129 9.9705791440897418
-30.921119680369646 9.9642129604055931
-30.916753676890284 9.9576589510300355
-30.91265545035197 9.9509343425795311
-30.908820862817027 9.9440560809915794
-30.905243531919854 9.9370406756687242
-30.901914527877331 9.929904181001266
-30.898826219854243 9.922660371558413
-30.895965725835293 9.9153237114248878
-30.893318011540636 9.9079077007057741
-30.89086596158463 9.9004248073744225
-30.888590493450209 9.8928864264103993
-30.886470369473603 9.8853029699026767
-30.884483085410015 9.8776836942659916
-30.882608550940219 9.8700359585694191
-30.880821879401037 9.8623672683958823
-30.879097263064665 9.8546844190048457
-30.877408251509408 9.8469936829453104
-30.875727531543639 9.8393011333226745
-30.874027999392741 9.831612703220463
-30.872282666607052 9.8239345075534192
-30.87046493143847 9.8162730776267608
-30.86854882627167 9.8086355851724516
-30.866509229906733 9.801030050568853
-30.86432200634766 9.7934655419826768
-30.861964087277784 9.7859523648705302
-30.859413416333023 9.7785022783158695
-30.856648975596929 9.7711286855280193
-30.853650575622389 9.7638469243670585
-30.850398683354623 9.7566746027422404
-30.846874221903022 9.7496320335979281
-30.843058616876018 9.7427426672295994
-30.838933844209038 9.7360336442070796
-30.834482989226242 9.7295361822619917
-30.82969098332071 9.7232859052744551
-30.82455010260567 9.7173191252248099
-30.819052904626293 9.7116787873452992
-30.813202296099984 9.7064058355946052
-30.807008490007455 9.7015405504190113
-30.800490646949658 9.6971187728859096
-30.79367724425726 9.6931676055406228
-30.786602780039008 9.6897055723851047
-30.779311161042514 9.6867280915210312
-30.771845362372112 9.6842192285220481
-30.764249622875429 9.6821366997373026
-30.756584201150694 9.6803275709926631
-30.748891086678796 9.6786402228852477
-30.741168415278597 9.6770935405758962
-30.733415483860963 9.6757083817499119
-30.725648557932402 9.6744056659329907
-30.717887877845708 9.6730677055649537
-30.710174293905908 9.6714801416285194

        </DataArray>
        <DataArray type="Float32" Name="u" NumberOfComponents="1">
          0 0.007874015748031496 0.015748031496062992 0.023622047244094488 0.031496062992125984 0.03937007874015748 0.047244094488188976 0.055118110236220472 0.062992125984251968 0.070866141732283464 0.07874015748031496 0.086614173228346455 0.094488188976377951 0.10236220472440945 0.11023622047244094 0.11811023622047244 0.12598425196850394 0.13385826771653545 0.14173228346456693 0.14960629921259844 0.15748031496062992 0.16535433070866143 0.17322834645669291 0.18110236220472442 0.1889763779527559 0.19685039370078741 0.20472440944881889 0.2125984251968504 0.22047244094488189 0.2283464566929134 0.23622047244094488 0.24409448818897639 0.25196850393700787 0.25984251968503935 0.26771653543307089 0.27559055118110237 0.28346456692913385 0.29133858267716534 0.29921259842519687 0.30708661417322836 0.31496062992125984 0.32283464566929132 0.33070866141732286 0.33858267716535434 0.34645669291338582 0.3543307086614173 0.36220472440944884 0.37007874015748032 0.37795275590551181 0.38582677165354329 0.39370078740157483 0.40157480314960631 0.40944881889763779 0.41732283464566927 0.42519685039370081 0.43307086614173229 0.44094488188976377 0.44881889763779526 0.45669291338582679 0.46456692913385828 0.47244094488188976 0.48031496062992124 0.48818897637795278 0.49606299212598426 0.50393700787401574 0.51181102362204722 0.51968503937007871 0.52755905511811019 0.53543307086614178 0.54330708661417326 0.55118110236220474 0.55905511811023623 0.56692913385826771 0.57480314960629919 0.58267716535433067 0.59055118110236215 0.59842519685039375 0.60629921259842523 0.61417322834645671 0.62204724409448819 0.62992125984251968 0.63779527559055116 0.64566929133858264 0.65354330708661412 0.66141732283464572 0.6692913385826772 0.67716535433070868 0.68503937007874016 0.69291338582677164 0.70078740157480313 0.70866141732283461 0.71653543307086609 0.72440944881889768 0.73228346456692917 0.74015748031496065 0.74803149606299213 0.75590551181102361 0.76377952755905509 0.77165354330708658 0.77952755905511806 0.78740157480314965 0.79527559055118113 0.80314960629921262 0.8110236220472441 0.81889763779527558 0.82677165354330706 0.83464566929133854 0.84251968503937003 0.85039370078740162 0.8582677165354331 0.86614173228346458 0.87401574803149606 0.88188976377952755 0.88976377952755903 0.89763779527559051 0.90551181102362199 0.91338582677165359 0.92125984251968507 0.92913385826771655 0.93700787401574803 0.94488188976377951 0.952755905511811 0.96062992125984248 0.96850393700787396 0.97637795275590555 0.98425196850393704 0.99212598425196852 1
        </DataArray>
      </PointData>
      <CellData Scalars="P">
        <DataArray type="Float32" Name="P" NumberOfComponents="1">
          0.024772406653642418 0.15669014156826028 0.35031456174989456 0.58176816544577536 0.83434979615012583 1.0962809338478468 1.3589846212228178 1.6128911670272605 1.8620958299552441 2.1082253086764906 2.3476004758409621 2.5876832107430108 2.8282412074351031 3.0626668911575758 3.2901950300344831 3.5176087433492458 3.738739163541009 3.9568233548679994 4.1612559751927014 4.3494154208291684 4.5236308283571072 4.6747005461326374 4.8033363211423366 4.898827268596607 4.9584681414795027 4.9869905217925474 4.9924553942375356 4.9793819387790048 4.9543828981093911 4.9247452816860111 4.8952504757340574 4.8749196904389844 4.8649946118116469 4.8747086570728166 4.899738661364351 4.946120198218761 5.0036734568114394 5.0726249889302162 5.1443329974159431 5.2014493583453376 5.2350324835611213 5.2294135620561253 5.1719872078082689 5.0556992160692431 4.8842046049480059 4.6674419620074401 4.4233473772836156 4.1766117215499312 3.9563199399307036 3.7813011790164937 3.6153907285839706 3.4582177498655926 3.2873287968848195 3.091033666216588 2.8709582627675911 2.6392776357896204 2.4078429273053357 2.1893108980787055 1.9963297044012747 1.8390492328978159 1.7204770048123723 1.6415335491526084 1.5976016213887532 1.5853286911708897 1.5978432740541642 1.6329294775748064 1.6865312144988023 1.7533905576996682 1.8279028886494764 1.8959582273721709 1.9444497747097358 1.9615176823514291 1.9369533218979269 1.863200131388866 1.7330432719772011 1.5351051871665486 1.2603296738174548 0.90333314609041515 0.4626038464043391 -0.059422678925087853 -0.65612918784577878 -1.3158145354629185 -2.0344062448631308 -2.7906119813498402 -3.5675172960743122 -4.3439447172734287 -5.0953149438225998 -5.7930493250203874 -6.4109792467763382 -6.9444274965889763 -7.3521958459524015 -7.615338940681676 -7.7187328901394228 -7.6490224530731252 -7.4037643708570853 -6.9843152998558491 -6.397655792853608 -5.6549522526288474 -4.7692881921612553 -3.7525200243863659 -2.6118753556123129 -1.3459983912830782 0.057207910395170043 1.6240889205526168 3.3957193455882342 5.4269548507241794 7.7806750758865313 10.519981749712185 13.690457684333033 17.298195306622883 21.228516302255034 25.37394653101531 29.39630581878323 32.882725891514013 35.304114156796132 36.084476692720514 34.705585293607577 30.869295794932725 24.564538863288345 16.367337000012537 9.604419253764954 6.1147593533951685 1.72205140651652 -2.6826648309587435 -4.5193896143907581 -3.3854325250941146 -0.025028778004372171
        </DataArray>
      </CellData>
      <Points>
        <DataArray type="Float32" NumberOfComponents="3" format="ascii">
          -31.424845576699312 9.8428489027248265 0
          -31.41774249751915 9.8394455189804155 0
          -31.410444225145525 9.8364839085011884 0
          -31.402979861011563 9.8339702764560606 0
          -31.395378843395495 9.8319066051510351 0
          -31.387669779618594 9.8302930276416802 0
          -31.3798803724032 9.8291279207728248 0
          -31.372037328859058 9.8284081971324682 0
          -31.364166461596184 9.8281258614076901 0
          -31.356292000193431 9.8282742171013293 0
          -31.34843696246995 9.8288455174515104 0
          -31.340622661365238 9.8298270971694617 0
          -31.332869181046792 9.8312088055914568 0
          -31.325195182275454 9.8329791369307635 0
          -31.317617013990546 9.835122596869093 0
          -31.310148903978231 9.837622414091868 0
          -31.302804664442231 9.8404654050642151 0
          -31.295594838768846 9.8436336139005931 0
          -31.288530081874729 9.8471131302240646 0
          -31.281617197764657 9.8508852035001944 0
          -31.274861159059832 9.8549313275026247 0
          -31.268267377907986 9.8592366637441575 0
          -31.261836733113025 9.8637819215631204 0
          -31.25557169767777 9.868552729647968 0
          -31.249469689800659 9.8735302297996608 0
          -31.243525420184547 9.8786949574824767 0
          -31.237731795112804 9.8840280086760703 0
          -31.232084150436485 9.8895153090595631 0
          -31.226571012551382 9.8951376344745281 0
          -31.221184585944947 9.9008813785768321 0
          -31.215910261768006 9.9067281489907089 0
          -31.210736947495842 9.9126644084557221 0
          -31.205646916954382 9.9186721695151299 0
          -31.20062744173908 9.924738952663029 0
          -31.195657510960629 9.9308463505604561 0
          -31.190722938984237 9.9369823286114389 0
          -31.185800849800014 9.9431283160884103 0
          -31.180876356299109 9.9492723863792918 0
          -31.175926490449285 9.9553960631737937 0
          -31.170927014110465 9.961479356252692 0
          -31.165863519039608 9.9675095435273207 0
          -31.160712223891458 9.9734650085789553 0
          -31.15544977281959 9.9793226245125286 0
          -31.150063258201239 9.9850665395998135 0
          -31.144531243950667 9.9906706836494337 0
          -31.138834352541352 9.9961074169596831 0
          -31.132953528141904 10.001344988678806 0
          -31.126871512225662 10.006347948398087 0
          -31.120573550563144 10.011076713278227 0
          -31.114047028189113 10.015485330971627 0
          -31.107275141496935 10.01950775244396 0
          -31.100267330686847 10.02310451446805 0
          -31.09303082775677 10.026215553039149 0
          -31.085602653229106 10.028836023143587 0
          -31.078018300210186 10.030962294339014 0
          -31.070312851869222 10.032595711271894 0
          -31.062519560041284 10.033738070902771 0
          -31.054670583823203 10.034395553388439 0
          -31.046796306945446 10.034576678305235 0
          -31.038925214528714 10.034291479297526 0
          -31.031084101508323 10.033549266441369 0
          -31.023297938268648 10.032362588257529 0
          -31.015590317327799 10.030742754867338 0
          -31.007982834176239 10.028704047431386 0
          -31.00049607258314 10.026259157242587 0
          -30.99314841908722 10.023423646990942 0
          -30.985957609633555 10.020211246975082 0
          -30.978940138889367 10.016636118145797 0
          -30.972111282686086 10.012712803639365 0
          -30.965486508685032 10.008454010983129 0
          -30.959078886817721 10.003875080241274 0
          -30.952900183178993 9.9989917294032313 0
          -30.946960779802417 9.9938200541795776 0
          -30.941269381842556 9.9883767163358517 0
          -30.935833312300101 9.9826784506033341 0
          -30.930660602807894 9.9767401630919874 0
          -30.92575539613129 9.9705791440897418 0
          -30.921119680369646 9.9642129604055931 0
          -30.916753676890284 9.9576589510300355 0
          -30.91265545035197 9.9509343425795311 0
          -30.908820862817027 9.9440560809915794 0
          -30.905243531919854 9.9370406756687242 0
          -30.901914527877331 9.929904181001266 0
          -30.898826219854243 9.922660371558413 0
          -30.895965725835293 9.9153237114248878 0
          -30.893318011540636 9.9079077007057741 0
          -30.89086596158463 9.9004248073744225 0
          -30.888590493450209 9.8928864264103993 0
          -30.886470369473603 9.8853029699026767 0
          -30.884483085410015 9.8776836942659916 0
          -30.882608550940219 9.8700359585694191 0
          -30.880821879401037 9.8623672683958823 0
          -30.879097263064665 9.8546844190048457 0
          -30.877408251509408 9.8469936829453104 0
          -30.875727531543639 9.8393011333226745 0
          -30.874027999392741 9.831612703220463 0
          -30.872282666607052 9.8239345075534192 0
          -30.87046493143847 9.8162730776267608 0
          -30.86854882627167 9.8086355851724516 0
          -30.866509229906733 9.801030050568853 0
          -30.86432200634766 9.7934655419826768 0
          -30.861964087277784 9.7859523648705302 0
          -30.859413416333023 9.7785022783158695 0
          -30.856648975596929 9.7711286855280193 0
          -30.853650575622389 9.7638469243670585 0
          -30.850398683354623 9.7566746027422404 0
          -30.846874221903022 9.7496320335979281 0
          -30.843058616876018 9.7427426672295994 0
          -30.838933844209038 9.7360336442070796 0
          -30.834482989226242 9.7295361822619917 0
          -30.82969098332071 9.7232859052744551 0
          -30.82455010260567 9.7173191252248099 0
          -30.819052904626293 9.7116787873452992 0
          -30.813202296099984 9.7064058355946052 0
          -30.807008490007455 9.7015405504190113 0
          -30.800490646949658 9.6971187728859096 0
          -30.79367724425726 9.6931676055406228 0
          -30.786602780039008 9.6897055723851047 0
          -30.779311161042514 9.6867280915210312 0
          -30.771845362372112 9.6842192285220481 0
          -30.764249622875429 9.6821366997373026 0
          -30.756584201150694 9.6803275709926631 0
          -30.748891086678796 9.6786402228852477 0
          -30.741168415278597 9.6770935405758962 0
          -30.733415483860963 9.6757083817499119 0
          -30.725648557932402 9.6744056659329907 0
          -30.717887877845708 9.6730677055649537 0
          -30.710174293905908 9.6714801416285194 0
        </DataArray>
      </Points>
      <Cells>
        <DataArray type="Int32" Name="connectivity" format="ascii">
          0 1 1 2 2 3 3 4 4 5 5 6 6 7 7 8 8 9 9 10 10 11 11 12 12 13 13 14 14 15 15 16 16 17 17 18 18 19 19 20 20 21 21 22 22 23 23 24 24 25 25 26 26 27 27 28 28 29 29 30 30 31 31 32 32 33 33 34 34 35 35 36 36 37 37 38 38 39 39 40 40 41 41 42 42 43 43 44 44 45 45 46 46 47 47 48 48 49 49 50 50 51 51 52 52 53 53 54 54 55 55 56 56 57 57 58 58 59 59 60 60 61 61 62 62 63 63 64 64 65 65 66 66 67 67 68 68 69 69 70 70 71 71 72 72 73 73 74 74 75 75 76 76 77 77 78 78 79 79 80 80 81 81 82 82 83 83 84 84 85 85 86 86 87 87 88 88 89 89 90 90 91 91 92 92 93 93 94 94 95 95 96 96 97 97 98 98 99 99 100 100 101 101 102 102 103 103 104 104 105 105 106 106 107 107 108 108 109 109 110 110 111 111 112 112 113 113 114 114 115 115 116 116 117 117 118 118 119 119 120 120 121 121 122 122 123 123 124 124 125 125 126 126 127 
        </DataArray>
        <DataArray type="Int32" Name="offsets" format="ascii">
          2 4 6 8 10 12 14 16 18 20 22 24 26 28 30 32 34 36 38 40 42 44 46 48 50 52 54 56 58 60 62 64 66 68 70 72 74 76 78 80 82 84 86 88 90 92 94 96 98 100 102 104 106 108 110 112 114 116 118 120 122 124 126 128 130 132 134 136 138 140 142 144 146 148 150 152 154 156 158 160 162 164 166 168 170 172 174 176 178 180 182 184 186 188 190 192 194 196 198 200 202 204 206 208 210 212 214 216 218 220 222 224 226 228 230 232 234 236 238 240 242 244 246 248 250 252 254 
        </DataArray>
        <DataArray type="Int32" Name="types" format="ascii">
          3 3 3 3 3 3 3 3 3 3 3 3 3 3 3 3 3 3 3 3 3 3 3 3 3 3 3 3 3 3 3 3 3 3 3 3 3 3 3 3 3 3 3 3 3 3 3 3 3 3 3 3 3 3 3 3 3 3 3 3 3 3 3 3 3 3 3 3 3 3 3 3 3 3 3 3 3 3 3 3 3 3 3 3 3 3 3 3 3 3 3 3 3 3 3 3 3 3 3 3 3 3 3 3 3 3 3 3 3 3 3 3 3 3 3 3 3 3 3 3 3 3 3 3 3 3 3         </DataArray>
      </Cells>
    </Piece>
  </UnstructuredGrid>
</VTKFile>
<!-- DATA


-->
