<?xml version="1.0"?>
<VTKFile type="UnstructuredGrid" version="0.1" byte_order="LittleEndian">
  <UnstructuredGrid>
    <Piece NumberOfPoints="128" NumberOfCells="127">
      <PointData Scalars="u">
        <DataArray type="Float32" Name="Y" NumberOfComponents="2">

0 0
0.0060936341674261976 -0.010111550578155146
0.017332297698964837 -0.0087467293068683189
0.032816223144269831 -0.0037546415842903838
0.049308405038239467 0.0042656809321835361
0.064316041497583257 0.014434997324940465
0.076071437984355561 0.025624432654496973
0.083506884823417615 0.036534887019321734
0.086211209557921317 0.045809270603889896
0.084359460325658109 0.052159075002270579
0.078612867324015512 0.054486264366170926
0.069992591769866649 0.051983354028973666
0.059736430707829025 0.044198779373377656
0.04915142863101208 0.031060623744176924
0.039476554286686311 0.01285842666229535
0.031768151589279148 -0.0098110669493596293
0.026817283653165064 -0.036123777553539335
0.025103284203037812 -0.065120971253965002
0.026782882853884905 -0.095801905398104348
0.031710122142088862 -0.12720555105018863
0.039479553761948782 -0.15847377566927337
0.049484102580829484 -0.18889216866670799
0.060979362155607966 -0.21790830964003546
0.073147522776273122 -0.24513021108265237
0.085156101050706548 -0.27030966383050042
0.0962086290278069 -0.2933162453507574
0.1055860694431222 -0.31410793363219242
0.11267870991236774 -0.33270377288405351
0.11700858724162384 -0.34916301063785621
0.11824220470137151 -0.36357365900757566
0.11619268310995606 -0.37605156033641612
0.11080990667679105 -0.38674878575336674
0.10215713760864176 -0.39586766046279942
0.090373439808476189 -0.40367413831967297
0.075623408757574007 -0.41050210128058628
0.058039242434858238 -0.41673909979587243
0.037664785358283839 -0.42278484908149699
0.014416018424865047 -0.42897712195869525
-0.011923732681670884 -0.43548581279730014
-0.041654397808899457 -0.44218449129653276
-0.075038948425960081 -0.4485184493899233
-0.11210349592062099 -0.45339694888041915
-0.15236123852879807 -0.45514243519779835
-0.19447922800780182 -0.45152826498045229
-0.23592239678775775 -0.43992715484212047
-0.27262089589772748 -0.41757474509129211
-0.29871062575811774 -0.38192796143943497
-0.30639004346411775 -0.33106970926380336
-0.28591821982612919 -0.2640845486772681
-0.22575196462342798 -0.18130914233426421
-0.11278910475302666 -0.084349800717476664
0.061737443108548562 0.034353525309548757
0.30136983502935055 0.16834082329338404
0.58473140384442024 0.32969909805771863
0.89999978372697675 0.51547060923014376
1.2357339010190906 0.72380449781057621
1.5808671800703191 0.95357312624792201
1.9247339616314874 1.2039593134196749
2.2571306057270624 1.4740466316020686
2.5684160033508676 1.7624410175364313
2.8496553062742462 2.0669489903916163
3.0928064030458637 2.3843350022635397
3.2909420539694083 2.7101770170670534
3.4384928981826053 3.038834527217035
3.5314891892958604 3.3635363412270931
3.5677735961647228 3.6765865364955665
3.5471550849340194 3.9696764931702107
3.4714757582945142 4.2342800286422611
3.3445689009343371 4.462098917360005
3.1720968831462084 4.6455192322729726
2.9612706861306006 4.7780364610758994
2.7204666657862258 4.8546100666578775
2.4587685270308515 4.8719159958320386
2.185471299000985 4.8284775410893426
1.9095879937227755 4.7246690914943645
1.6393981470589016 4.5626014452217865
1.382071130697748 4.3459093597665932
1.1433873496305382 4.0794702731994619
0.92756901591383567 3.7690868275509626
0.73722096745207411 3.4211650110062037
0.57337249278224089 3.0424151829566672
0.43560428443151117 2.6395961834890311
0.32224079596390126 2.2193145347088321
0.23058720156465765 1.7878826726356229
0.15719125055322899 1.3512331686104537
0.098112805727981853 0.91488060321933751
0.049186990567780101 0.48391938904002496
0.0062700285974311093 0.063044365966300711
-0.034540372639095956 -0.34341880807075476
-0.076716044589961174 -0.73148490372277086
-0.12314510981381621 -1.0974909131663499
-0.17601757220205511 -1.438094164352701
-0.23675183806889774 -1.7502891410584718
-0.30596321344863708 -2.0314420785412239
-0.38347416830986508 -2.2793394706014141
-0.46836461298164184 -2.492244336834045
-0.55905862218216906 -2.6689526678942528
-0.65344210509794887 -2.8088420189500796
-0.74900407236942335 -2.9119047810845111
-0.84299264900941662 -2.9787601346269694
-0.93257606698310158 -3.0106408724899945
-1.0149987171606425 -3.0093538823515114
-1.0877230199650556 -2.9772157529700491
-1.1485493375453311 -2.9169673853820983
-1.1957082379378834 -2.8316733617863474
-1.2279218886946484 -2.7246129668770727
-1.2444339210013198 -2.5991700978655294
-1.2450094904424802 -2.458728886101639
-1.2299092408493988 -2.306580826570892
-1.1998423039219945 -2.1458477739118038
-1.1559042764428162 -1.9794235390062156
-1.099506325006147 -1.8099352182577777
-1.032301257004274 -1.6397239736107698
-0.95611168350592501 -1.4708438635671583
-0.87286441891528821 -1.3050765493812442
-0.78453414349491357 -1.1439592558435978
-0.69309820706751779 -0.98882320093379295
-0.60050336331465404 -0.84083974235679326
-0.50864425355901188 -0.70107163149087681
-0.41935264766992725 -0.57052692659747439
-0.3343958207958681 -0.45021322079536774
-0.2554820137039151 -0.34118982660499042
-0.18427069679199795 -0.244615393852473
-0.12238533737519808 -0.16178810885948297
-0.071426546580189682 -0.094175146828343201
-0.032983832902289657 -0.04342746596072232
-0.0086446599572399026 -0.011375408325708339
0 0

        </DataArray>
        <DataArray type="Float32" Name="W" NumberOfComponents="2">

-1.3538726921854587 0.57973882779357899
-1.3508710626301981 0.5724593681861837
-1.3475256662358785 0.56533134413740116
-1.3438039973357589 0.55839234674882487
-1.3396808527853274 0.55168412143543011
-1.3351393929788649 0.54525171498880121
-1.3301719492851598 0.53914227076498522
-1.3247805025421742 0.53340352588035955
-1.3189767687365153 0.52808209410618767
-1.31278184967897 0.52322164197303345
-1.3062254364433765 0.51886108019009325
-1.299344588208275 0.51503289545928899
-1.2921821446252324 0.51176173811228065
-1.2847848613642425 0.50906335940809722
-1.2772013819781516 0.50694396117799467
-1.2694801717814646 0.50539998352873727
-1.2616675397833195 0.50441831801788828
-1.2538058633566791 0.50397689863850414
-1.2459321093650386 0.50404559497946733
-1.2380767181373815 0.50458731374680366
-1.2302628867304144 0.50555920764386197
-1.2225062589656184 0.50691389413239119
-1.2148150047287205 0.50860059930540613
-1.2071902518956685 0.51056616162264834
-1.199626821766379 0.51275585382457589
-1.1921142127240141 0.51511400620838477
-1.1846377758220095 0.51758443820946698
-1.1771800284424228 0.52011072598078323
-1.1697220562141457 0.52263635005064901
-1.1622449573421305 0.52510477832082714
-1.1547312861218877 0.52745954520583072
-1.1471664530397707 0.52964438749059128
-1.1395400375009295 0.53160349163321596
-1.1318469665318709 0.53328189614639843
-1.1240885099300049 0.53462607702167841
-1.1162730407336887 0.53558472491595488
-1.108416511052744 0.53610970136620517
-1.1005425984723611 0.53615713934463516
-1.0926824881613344 0.5356886329594418
-1.0848742705359964 0.53467244405011682
-1.0771619531648469 0.53308464164874347
-1.0695941071737289 0.53091008519352101
-1.0622221908524716 0.52814316479712264
-1.0550986143480836 0.52478822189846475
-1.0482746271586374 0.52085959068286747
-1.0417981227776894 0.51638122358980287
-1.0357114608635476 0.51138589148960778
-1.0300494058036855 0.50591397894564083
-1.0248372711208442 0.50001192559756935
-1.0200893419738744 0.49373039442240119
-1.015807623784647 0.48712227500564959
-1.0119809352189177 0.48024065393239368
-1.0081504200325804 0.47336116479006102
-1.0043012208121773 0.4664921145239303
-1.0004157689217212 0.45964350703785323
-0.99647451749388116 0.4528268598278119
-0.99245665077723477 0.44605508924364656
-0.98834077026234701 0.43934244059165251
-0.98410555595034366 0.43270443748616594
-0.97973039897715575 0.42615782504798627
-0.97519599936308288 0.41972048348877444
-0.97048491997747621 0.41341129212999822
-0.96558208515761978 0.40724992881102429
-0.96047521020946536 0.40125659573103417
-0.95515514672317869 0.39545166974063545
-0.94961612871466128 0.3898552825250875
-0.9438559063976657 0.38448684344776585
-0.93787575804375778 0.37936452440013885
-0.93168037578399943 0.37450473115750532
-0.92527762795171664 0.3699215888643399
-0.91867820801508349 0.36562646994459419
-0.91189518748851051 0.36162759079664264
-0.90494349658392592 0.35792969925805979
-0.89783936100082939 0.35453386849782736
-0.89059972561058243 0.35143740545078189
-0.88324169562437294 0.34863387402739215
-0.87578202323760923 0.34611322598790101
-0.868236663107399 0.3438620263078293
-0.86062041395036015 0.34186375559389653
-0.85294665675364001 0.34009916986486177
-0.84522719326860718 0.33854669774015839
-0.83747218219375974 0.33718285649816754
-0.82969016517504357 0.33598267113761066
-0.82188817069651576 0.3349200839917188
-0.81407188116888818 0.3339683461052268
-0.80624584698005231 0.33310038505603234
-0.79841373079543998 0.33228914685817618
-0.79057856579248487 0.3315079118118775
-0.78274301258670242 0.33073058557840557
-0.77490960118525343 0.32993196736492453
-0.7670809462511724 0.32908799700289271
-0.7592599261766686 0.3281759820496048
-0.75144981887186868 0.3271748050303705
-0.74365438971306164 0.32606510977885111
-0.73587792969701982 0.32482946473074853
-0.72812524443753057 0.32345250016330168
-0.72040159712107665 0.32192101589169592
-0.71271261079845361 0.32022405592228431
-0.70506413730789319 0.31835294704921918
-0.69746210158842525 0.31630129933102374
-0.68991233105661809 0.31406496770538989
-0.68242038002870853 0.31164197555866452
-0.67499135886392136 0.30903240269979976
-0.6676297766255741 0.30623824173105202
-0.66033940469512098 0.3032632281096152
-0.6531231670600447 0.30011265013958616
-0.645983061082403 0.29679314565135217
-0.63892011059986131 0.29331249219447963
-0.6319343513630743 0.28967939721608388
-0.62502484719511608 0.28590329398313874
-0.61818973395875876 0.28199414802336886
-0.61142628748590377 0.27796227770600934
-0.60473101107332838 0.27381819136015068
-0.59809973796079208 0.26957244212229764
-0.59152774433725186 0.26523550058548451
-0.58500986880765316 0.26081764433792864
-0.57854063482709828 0.256328862657353
-0.5721143733000158 0.25177877397801668
-0.5657253432817072 0.24717655326905452
-0.55936784944818474 0.24253086614611652
-0.55303635566721965 0.23784980637349357
-0.54672559457001335 0.23314083339449615
-0.54043067346214335 0.22841070665463697
-0.53414717721032712 0.22366541376539453
-0.52787126889678926 0.21891009001636377
-0.52159978905657423 0.21414892740994332
-0.51533035422675377 0.2093850723015247
-0.50906145536926994 0.20462051191808533

        </DataArray>
        <DataArray type="Float32" Name="u" NumberOfComponents="1">
          0 0.007874015748031496 0.015748031496062992 0.023622047244094488 0.031496062992125984 0.03937007874015748 0.047244094488188976 0.055118110236220472 0.062992125984251968 0.070866141732283464 0.07874015748031496 0.086614173228346455 0.094488188976377951 0.10236220472440945 0.11023622047244094 0.11811023622047244 0.12598425196850394 0.13385826771653545 0.14173228346456693 0.14960629921259844 0.15748031496062992 0.16535433070866143 0.17322834645669291 0.18110236220472442 0.1889763779527559 0.19685039370078741 0.20472440944881889 0.2125984251968504 0.22047244094488189 0.2283464566929134 0.23622047244094488 0.24409448818897639 0.25196850393700787 0.25984251968503935 0.26771653543307089 0.27559055118110237 0.28346456692913385 0.29133858267716534 0.29921259842519687 0.30708661417322836 0.31496062992125984 0.32283464566929132 0.33070866141732286 0.33858267716535434 0.34645669291338582 0.3543307086614173 0.36220472440944884 0.37007874015748032 0.37795275590551181 0.38582677165354329 0.39370078740157483 0.40157480314960631 0.40944881889763779 0.41732283464566927 0.42519685039370081 0.43307086614173229 0.44094488188976377 0.44881889763779526 0.45669291338582679 0.46456692913385828 0.47244094488188976 0.48031496062992124 0.48818897637795278 0.49606299212598426 0.50393700787401574 0.51181102362204722 0.51968503937007871 0.52755905511811019 0.53543307086614178 0.54330708661417326 0.55118110236220474 0.55905511811023623 0.56692913385826771 0.57480314960629919 0.58267716535433067 0.59055118110236215 0.59842519685039375 0.60629921259842523 0.61417322834645671 0.62204724409448819 0.62992125984251968 0.63779527559055116 0.64566929133858264 0.65354330708661412 0.66141732283464572 0.6692913385826772 0.67716535433070868 0.68503937007874016 0.69291338582677164 0.70078740157480313 0.70866141732283461 0.71653543307086609 0.72440944881889768 0.73228346456692917 0.74015748031496065 0.74803149606299213 0.75590551181102361 0.76377952755905509 0.77165354330708658 0.77952755905511806 0.78740157480314965 0.79527559055118113 0.80314960629921262 0.8110236220472441 0.81889763779527558 0.82677165354330706 0.83464566929133854 0.84251968503937003 0.85039370078740162 0.8582677165354331 0.86614173228346458 0.87401574803149606 0.88188976377952755 0.88976377952755903 0.89763779527559051 0.90551181102362199 0.91338582677165359 0.92125984251968507 0.92913385826771655 0.93700787401574803 0.94488188976377951 0.952755905511811 0.96062992125984248 0.96850393700787396 0.97637795275590555 0.98425196850393704 0.99212598425196852 1
        </DataArray>
      </PointData>
      <CellData Scalars="P">
        <DataArray type="Float32" Name="P" NumberOfComponents="1">
          0.0030407348381430617 0.082518309318257807 0.22419615686961492 0.41220584959320572 0.62828082333792201 0.85368927803504746 1.0707973629355427 1.2642556294442457 1.4218179918204052 1.5348146350631273 1.5983108593276834 1.6109934274328426 1.5748340919549193 1.4945855997529423 1.3771676461725326 1.2309984930004612 1.0653224510771091 0.88957497347233028 0.71281696313404697 0.54325949223615932 0.38789076639483477 0.25220981376622642 0.14006652784019155 0.05360531153746894 -0.0066908655697824606 -0.041858603353436677 -0.0542166087971028 -0.047035937175217729 -0.024125036846603935 0.010655918101349899 0.053925663882742461 0.10331712183474449 0.1579606313206724 0.21884295607430226 0.28895869982370553 0.37316782803695947 0.47768199429574654 0.6091260160880192 0.77316010711032135 0.97270208133515823 1.2058530721732537 1.4636997259654418 1.728233472007735 1.9706863214800689 2.1506267163230914 2.2161844409483757 2.1057799827069821 1.7517246173043239 1.0860414262283042 0.04884806785009764 -1.4003426596279251 -1.3705430886563073 -1.252232763531854 -1.0035297735847777 -0.59082022891371822 0.0082892767970189733 0.80341068191964926 1.7908811203875943 2.9541063197509208 4.2645790128675403 5.6834575188608527 7.1636154460320709 8.6520801777956624 10.092768753059357 11.429409835227881 12.60851595920661 13.58224823058106 14.311003048470472 14.765552828179253 14.928593253948288 14.795588197867122 14.374856579509453 13.686906726072287 12.76308517069605 11.643660166646626 10.375498864359457 9.0095171451287506 7.5980817787524204 6.1925281230754488 4.8409274691909339 3.586201907706394 2.4646467576755922 1.5048857187376277 0.72725504702930677 0.14359164841847519 -0.24261400096576516 -0.43574686383476846 -0.44732810182539029 -0.29505773869925461 -0.0016886281962874242 0.40621952134570688 0.8996172752927406 1.448304255433907 2.0222392276729644 2.592771016175524 3.1337413396675355 3.6224148071180933 4.0401985553694306 4.3731244205451043 4.6120796303788945 4.7527868121448167 4.7955492961694013 4.7447917686028509 4.6084378786414355 4.397174319061004 4.123654512248474 3.8016942119628849 3.4455064519876339 3.0690151324726518 2.6852762052315464 2.3060240828318688 1.9413496927037819 1.5995065048301402 1.2868326172005629 1.0077710562973621 0.76496704728927567 0.5594201128974301 0.39067028125924413 0.25700111260329628 0.15564731143934313 0.083000950451981859 0.034817328014548669 0.0064286811712099554 -0.0070192717685694577 -0.010287528358623094 -0.0076972690035795616 -0.0026939657142723492
        </DataArray>
      </CellData>
      <Points>
        <DataArray type="Float32" NumberOfComponents="3" format="ascii">
          -1.3538726921854587 0.57973882779357899 0
          -1.3508710626301981 0.5724593681861837 0
          -1.3475256662358785 0.56533134413740116 0
          -1.3438039973357589 0.55839234674882487 0
          -1.3396808527853274 0.55168412143543011 0
          -1.3351393929788649 0.54525171498880121 0
          -1.3301719492851598 0.53914227076498522 0
          -1.3247805025421742 0.53340352588035955 0
          -1.3189767687365153 0.52808209410618767 0
          -1.31278184967897 0.52322164197303345 0
          -1.3062254364433765 0.51886108019009325 0
          -1.299344588208275 0.51503289545928899 0
          -1.2921821446252324 0.51176173811228065 0
          -1.2847848613642425 0.50906335940809722 0
          -1.2772013819781516 0.50694396117799467 0
          -1.2694801717814646 0.50539998352873727 0
          -1.2616675397833195 0.50441831801788828 0
          -1.2538058633566791 0.50397689863850414 0
          -1.2459321093650386 0.50404559497946733 0
          -1.2380767181373815 0.50458731374680366 0
          -1.2302628867304144 0.50555920764386197 0
          -1.2225062589656184 0.50691389413239119 0
          -1.2148150047287205 0.50860059930540613 0
          -1.2071902518956685 0.51056616162264834 0
          -1.199626821766379 0.51275585382457589 0
          -1.1921142127240141 0.51511400620838477 0
          -1.1846377758220095 0.51758443820946698 0
          -1.1771800284424228 0.52011072598078323 0
          -1.1697220562141457 0.52263635005064901 0
          -1.1622449573421305 0.52510477832082714 0
          -1.1547312861218877 0.52745954520583072 0
          -1.1471664530397707 0.52964438749059128 0
          -1.1395400375009295 0.53160349163321596 0
          -1.1318469665318709 0.53328189614639843 0
          -1.1240885099300049 0.53462607702167841 0
          -1.1162730407336887 0.53558472491595488 0
          -1.108416511052744 0.53610970136620517 0
          -1.1005425984723611 0.53615713934463516 0
          -1.0926824881613344 0.5356886329594418 0
          -1.0848742705359964 0.53467244405011682 0
          -1.0771619531648469 0.53308464164874347 0
          -1.0695941071737289 0.53091008519352101 0
          -1.0622221908524716 0.52814316479712264 0
          -1.0550986143480836 0.52478822189846475 0
          -1.0482746271586374 0.52085959068286747 0
          -1.0417981227776894 0.51638122358980287 0
          -1.0357114608635476 0.51138589148960778 0
          -1.0300494058036855 0.50591397894564083 0
          -1.0248372711208442 0.50001192559756935 0
          -1.0200893419738744 0.49373039442240119 0
          -1.015807623784647 0.48712227500564959 0
          -1.0119809352189177 0.48024065393239368 0
          -1.0081504200325804 0.47336116479006102 0
          -1.0043012208121773 0.4664921145239303 0
          -1.0004157689217212 0.45964350703785323 0
          -0.99647451749388116 0.4528268598278119 0
          -0.99245665077723477 0.44605508924364656 0
          -0.98834077026234701 0.43934244059165251 0
          -0.98410555595034366 0.43270443748616594 0
          -0.97973039897715575 0.42615782504798627 0
          -0.97519599936308288 0.41972048348877444 0
          -0.97048491997747621 0.41341129212999822 0
          -0.96558208515761978 0.40724992881102429 0
          -0.96047521020946536 0.40125659573103417 0
          -0.95515514672317869 0.39545166974063545 0
          -0.94961612871466128 0.3898552825250875 0
          -0.9438559063976657 0.38448684344776585 0
          -0.93787575804375778 0.37936452440013885 0
          -0.93168037578399943 0.37450473115750532 0
          -0.92527762795171664 0.3699215888643399 0
          -0.91867820801508349 0.36562646994459419 0
          -0.91189518748851051 0.36162759079664264 0
          -0.90494349658392592 0.35792969925805979 0
          -0.89783936100082939 0.35453386849782736 0
          -0.89059972561058243 0.35143740545078189 0
          -0.88324169562437294 0.34863387402739215 0
          -0.87578202323760923 0.34611322598790101 0
          -0.868236663107399 0.3438620263078293 0
          -0.86062041395036015 0.34186375559389653 0
          -0.85294665675364001 0.34009916986486177 0
          -0.84522719326860718 0.33854669774015839 0
          -0.83747218219375974 0.33718285649816754 0
          -0.82969016517504357 0.33598267113761066 0
          -0.82188817069651576 0.3349200839917188 0
          -0.81407188116888818 0.3339683461052268 0
          -0.80624584698005231 0.33310038505603234 0
          -0.79841373079543998 0.33228914685817618 0
          -0.79057856579248487 0.3315079118118775 0
          -0.78274301258670242 0.33073058557840557 0
          -0.77490960118525343 0.32993196736492453 0
          -0.7670809462511724 0.32908799700289271 0
          -0.7592599261766686 0.3281759820496048 0
          -0.75144981887186868 0.3271748050303705 0
          -0.74365438971306164 0.32606510977885111 0
          -0.73587792969701982 0.32482946473074853 0
          -0.72812524443753057 0.32345250016330168 0
          -0.72040159712107665 0.32192101589169592 0
          -0.71271261079845361 0.32022405592228431 0
          -0.70506413730789319 0.31835294704921918 0
          -0.69746210158842525 0.31630129933102374 0
          -0.68991233105661809 0.31406496770538989 0
          -0.68242038002870853 0.31164197555866452 0
          -0.67499135886392136 0.30903240269979976 0
          -0.6676297766255741 0.30623824173105202 0
          -0.66033940469512098 0.3032632281096152 0
          -0.6531231670600447 0.30011265013958616 0
          -0.645983061082403 0.29679314565135217 0
          -0.63892011059986131 0.29331249219447963 0
          -0.6319343513630743 0.28967939721608388 0
          -0.62502484719511608 0.28590329398313874 0
          -0.61818973395875876 0.28199414802336886 0
          -0.61142628748590377 0.27796227770600934 0
          -0.60473101107332838 0.27381819136015068 0
          -0.59809973796079208 0.26957244212229764 0
          -0.59152774433725186 0.26523550058548451 0
          -0.58500986880765316 0.26081764433792864 0
          -0.57854063482709828 0.256328862657353 0
          -0.5721143733000158 0.25177877397801668 0
          -0.5657253432817072 0.24717655326905452 0
          -0.55936784944818474 0.24253086614611652 0
          -0.55303635566721965 0.23784980637349357 0
          -0.54672559457001335 0.23314083339449615 0
          -0.54043067346214335 0.22841070665463697 0
          -0.53414717721032712 0.22366541376539453 0
          -0.52787126889678926 0.21891009001636377 0
          -0.52159978905657423 0.21414892740994332 0
          -0.51533035422675377 0.2093850723015247 0
          -0.50906145536926994 0.20462051191808533 0
        </DataArray>
      </Points>
      <Cells>
        <DataArray type="Int32" Name="connectivity" format="ascii">
          0 1 1 2 2 3 3 4 4 5 5 6 6 7 7 8 8 9 9 10 10 11 11 12 12 13 13 14 14 15 15 16 16 17 17 18 18 19 19 20 20 21 21 22 22 23 23 24 24 25 25 26 26 27 27 28 28 29 29 30 30 31 31 32 32 33 33 34 34 35 35 36 36 37 37 38 38 39 39 40 40 41 41 42 42 43 43 44 44 45 45 46 46 47 47 48 48 49 49 50 50 51 51 52 52 53 53 54 54 55 55 56 56 57 57 58 58 59 59 60 60 61 61 62 62 63 63 64 64 65 65 66 66 67 67 68 68 69 69 70 70 71 71 72 72 73 73 74 74 75 75 76 76 77 77 78 78 79 79 80 80 81 81 82 82 83 83 84 84 85 85 86 86 87 87 88 88 89 89 90 90 91 91 92 92 93 93 94 94 95 95 96 96 97 97 98 98 99 99 100 100 101 101 102 102 103 103 104 104 105 105 106 106 107 107 108 108 109 109 110 110 111 111 112 112 113 113 114 114 115 115 116 116 117 117 118 118 119 119 120 120 121 121 122 122 123 123 124 124 125 125 126 126 127 
        </DataArray>
        <DataArray type="Int32" Name="offsets" format="ascii">
          2 4 6 8 10 12 14 16 18 20 22 24 26 28 30 32 34 36 38 40 42 44 46 48 50 52 54 56 58 60 62 64 66 68 70 72 74 76 78 80 82 84 86 88 90 92 94 96 98 100 102 104 106 108 110 112 114 116 118 120 122 124 126 128 130 132 134 136 138 140 142 144 146 148 150 152 154 156 158 160 162 164 166 168 170 172 174 176 178 180 182 184 186 188 190 192 194 196 198 200 202 204 206 208 210 212 214 216 218 220 222 224 226 228 230 232 234 236 238 240 242 244 246 248 250 252 254 
        </DataArray>
        <DataArray type="Int32" Name="types" format="ascii">
          3 3 3 3 3 3 3 3 3 3 3 3 3 3 3 3 3 3 3 3 3 3 3 3 3 3 3 3 3 3 3 3 3 3 3 3 3 3 3 3 3 3 3 3 3 3 3 3 3 3 3 3 3 3 3 3 3 3 3 3 3 3 3 3 3 3 3 3 3 3 3 3 3 3 3 3 3 3 3 3 3 3 3 3 3 3 3 3 3 3 3 3 3 3 3 3 3 3 3 3 3 3 3 3 3 3 3 3 3 3 3 3 3 3 3 3 3 3 3 3 3 3 3 3 3 3 3         </DataArray>
      </Cells>
    </Piece>
  </UnstructuredGrid>
</VTKFile>
<!-- DATA


-->
