<?xml version="1.0"?>
<VTKFile type="UnstructuredGrid" version="0.1" byte_order="LittleEndian">
  <UnstructuredGrid>
    <Piece NumberOfPoints="128" NumberOfCells="127">
      <PointData Scalars="u">
        <DataArray type="Float32" Name="Y" NumberOfComponents="2">

0 0
0.020152659635741418 0.0022355445527688245
0.064125324108454909 0.0075942757290886993
0.12277491065169369 0.014160827001217593
0.18839434669985319 0.02158448821093973
0.25462393647307419 0.029712802227381433
0.31643085411584665 0.038403277320774733
0.37020133726113313 0.047467981527188785
0.41395318815219012 0.056736406720140631
0.44839222509277443 0.063717101591242484
0.47182655604894913 0.072350996819005586
0.48326141226411057 0.079387106279112205
0.48553280151270845 0.080112705484196856
0.47713496468790084 0.081308495947239184
0.46221018631539357 0.07284254088139161
0.43789891727929148 0.061985395983879157
0.41000265320291812 0.03680376241582433
0.37328752554305472 0.0060890508275043597
0.32688577263136154 -0.029909914838046003
0.26627625757491702 -0.051565244201349794
0.2130026907275159 -0.079952277081993511
0.16841121490927949 -0.11075185902155296
0.13391642266179402 -0.14154790682126953
0.11016513775064407 -0.17024590986937504
0.094925224824339294 -0.19428201502412321
0.087108261864459371 -0.21323824334621611
0.086198782325185588 -0.22716304622302871
0.088788159658981611 -0.23543770244180237
0.095026037296977423 -0.23937808422765419
0.1020272184563107 -0.23934909553778888
0.11069387597093086 -0.23669562714325895
0.11839781594393843 -0.23181889560712229
0.12669443817147971 -0.22552779672974832
0.1333872314686757 -0.2177934438765852
0.14039614118543939 -0.20832341733913137
0.14498010356001778 -0.19649813967658694
0.14922806105008804 -0.18106369643845716
0.14991691512262861 -0.1611017258276625
0.14718393050460502 -0.13531408677014095
0.14084626067724546 -0.10159685190044419
0.12715401263561188 -0.059390950353628465
0.10550992228042522 -0.0081010557681119432
0.075763546891584488 0.053146768914550981
0.034412165038280533 0.12215039983923782
-0.017437048592241454 0.19683412211551729
-0.079068070122354575 0.27418891073126067
-0.14886825120829761 0.3507509523304978
-0.22420062362650936 0.42271496089029703
-0.30142670655574999 0.48609328429540011
-0.37684002518230303 0.53635527238831171
-0.44339792681093493 0.57414062068275973
-0.50035248725881265 0.59497133242427047
-0.54156514570852399 0.598210194113314
-0.56265027988384408 0.58413657517720807
-0.56170140849741701 0.55076793608230135
-0.53467227424367103 0.5002500720540124
-0.48157435746705129 0.4328724599236406
-0.40214062016776764 0.34957963192330327
-0.29684160572273371 0.25179490984346747
-0.16639650544587392 0.13816901063028689
-0.010259368169120783 0.008441533163767773
0.17090693345161942 -0.13951670564870883
0.37576589794565557 -0.3079845986978359
0.6022207081007801 -0.49907327624269038
0.84476591426175351 -0.71561275821107162
1.0937749580663132 -0.95769348846942515
1.3392172201771968 -1.2221880348247551
1.5700732491138725 -1.5060925779640149
1.7744290085580796 -1.8054755861166754
1.9477387996541971 -2.1125756198835206
2.0806784667326208 -2.4264834544291163
2.1672088243837075 -2.7418021259181673
2.2023670129744697 -3.0512482706077586
2.1826281347557734 -3.3457906782843403
2.1066080035443084 -3.6146945947312812
1.9745194361971445 -3.8460440142735064
1.7898815121772123 -4.0267802049790706
1.5708964169049313 -4.1445739543230093
1.3208134984363415 -4.1979844904273582
1.051935611033606 -4.1840612097500864
0.77702199599030097 -4.102191122292739
0.50877208576918431 -3.9542561596091281
0.25890712287838796 -3.7445778208231668
0.037851760729404348 -3.4795956235860794
-0.1455328299612561 -3.1674919225939804
-0.28567000762521538 -2.8171491880152577
-0.37712651749097248 -2.4382143877974829
-0.41755573824011083 -2.0405846036968933
-0.40652039400704759 -1.6340758520603627
-0.34538050854333652 -1.2280820938491186
-0.23705211003337348 -0.83132542550378841
-0.085776685870793443 -0.45166465504238035
0.10329330564127205 -0.096109664434761904
0.32412027491253342 0.22934772203598275
0.57070129932962532 0.51927123114129548
0.83570742653544794 0.77029139058828267
1.1129405078457884 0.97910760620472548
1.4001752191076844 1.1382836834331869
1.6690540346465492 1.2670593991899999
1.9148812104589514 1.3526329594058739
2.13777153817909 1.3936341987564629
2.3405022178691537 1.4009377476154341
2.5336548021542695 1.3861857332224328
2.7319723131530962 1.36155612905976
2.9530017082365951 1.3373306130561431
3.2144389692917308 1.3210458523298445
3.5315751065917622 1.3172240898319219
3.9148667202059264 1.3277415800058829
4.3677611936510248 1.3527381334364907
4.8849754890407908 1.3916062057648539
5.4516095457977745 1.4427009102947039
6.0426145300938776 1.5051281475218934
6.6234632638899287 1.5787791063246401
7.1516156197389087 1.6598290111733052
7.5787853271310732 1.7386393548616141
7.8547689768371223 1.8017457737963127
7.9326325885730018 1.8302420335766547
7.7743125088132361 1.799927407323384
7.3560068158031848 1.691244643965526
6.673968608971367 1.4950938895716852
5.7497594750871963 1.2190758206337704
4.6386850951972143 0.88049518344592159
3.4396264425121412 0.54597587062800745
2.2981982256464351 0.31167047219463412
1.3352993582705035 0.17683304660997143
0.61428766892421516 0.075878185557866115
0.16973902475455807 -0.00055365338655807416
0 0

        </DataArray>
        <DataArray type="Float32" Name="W" NumberOfComponents="2">

-39.697856256377797 12.576991827551806
-39.69693167217828 12.56917227201523
-39.696017766139938 12.561351472145605
-39.695091378331981 12.553532138344572
-39.69412777793557 12.545717285731399
-39.69310112003464 12.537910433282402
-39.691984881499721 12.53011583369666
-39.690752057891977 12.522338751107494
-39.689375685345773 12.514585694935494
-39.687829933957644 12.506864511013179
-39.686074081294301 12.499188238972604
-39.684081575353787 12.491569799848461
-39.681827726952982 12.484024352431527
-39.67927211960685 12.476575468135071
-39.67639229630354 12.46924556597882
-39.6731512719739 12.46206775115043
-39.669529275389252 12.455074083405504
-39.665494327423438 12.448309825338688
-39.661035474875483 12.441816667304822
-39.656145249660476 12.435641994399793
-39.65085368743415 12.429807728292673
-39.6451899844499 12.42433413735599
-39.639184871772301 12.419237583630906
-39.632869012614051 12.414531759814551
-39.626271640042219 12.410229634403136
-39.619422824627044 12.406340391411206
-39.612352240750731 12.402870764701508
-39.605087794616473 12.399828007288562
-39.597657947728173 12.397215140336275
-39.590089693294637 12.395035592973587
-39.582410099209994 12.393288606877048
-39.574644766091836 12.391974464423193
-39.566819031442463 12.391088757483496
-39.558956860526152 12.390628224853554
-39.551081383081439 12.390585037720232
-39.543214461622618 12.390953444410805
-39.535376607178129 12.391722427151297
-39.527587316324194 12.392884037284293
-39.519864290569892 12.394425566013288
-39.512223596641036 12.396333506758747
-39.504680846347824 12.398597649631576
-39.49724935762999 12.401203671444785
-39.489940765987868 12.404136550850945
-39.482767330623581 12.407385864011008
-39.475738272480996 12.410936561535699
-39.468861331131478 12.414773445374957
-39.462142723709889 12.41888114498474
-39.455587026361762 12.423244010233679
-39.449197031121841 12.427846031713173
-39.442973434707298 12.432670590965186
-39.436909927415641 12.437694759673761
-39.431006727271416 12.442906239476404
-39.425256779320335 12.448286231160264
-39.419649855202941 12.453815024593705
-39.414178704338617 12.459478121045095
-39.408826925552006 12.465254076804685
-39.403580969269051 12.471126237921458
-39.398425273153791 12.477077739381299
-39.393340962445386 12.483090286660826
-39.388315976977793 12.489152464151154
-39.383326268405554 12.495243687471895
-39.378355227026127 12.501350149433367
-39.373376029594816 12.507449977874225
-39.368367896490696 12.513526109414046
-39.363299854446545 12.519552425710248
-39.358141284012973 12.525501525877774
-39.352868982653483 12.531350194191031
-39.34746033885181 12.537073168224072
-39.341893444080867 12.542642516793418
-39.33615819312476 12.548038553136491
-39.330238134365935 12.553231414048442
-39.324120220270608 12.558189921402528
-39.317795420612903 12.562881984294412
-39.311259076439825 12.567274894125246
-39.304511362313967 12.571336009603602
-39.297556977646124 12.575032434793329
-39.290406536337784 12.578334057842303
-39.283080964729137 12.581226746736416
-39.275598992111796 12.583687133116543
-39.267983176962737 12.585695651912173
-39.260259170810841 12.587236910210274
-39.252454937157587 12.588300034460845
-39.244599885895184 12.588878499625404
-39.236724109633073 12.588970151886986
-39.228857653223336 12.588576953053936
-39.22103003358886 12.587703250613847
-39.213269556671868 12.586358249452017
-39.20560292951177 12.584553876049238
-39.19805498181789 12.582304377978256
-39.190648520326931 12.579625783091203
-39.183404302001598 12.576535371945745
-39.176341114372327 12.573051183240056
-39.1694758795716 12.569191690826779
-39.162824030477303 12.564975163410629
-39.156399770917552 12.560419471323295
-39.150217447068115 12.5555405585879
-39.14429005333858 12.550354934354187
-39.138630485268493 12.544878241368837
-39.133251939943023 12.539125251590038
-39.128168667546277 12.533110163359973
-39.12337976541707 12.526858449065779
-39.118884243569461 12.520392739978822
-39.114679423180498 12.513734440561754
-39.110763390574455 12.506902380670052
-39.107132676356372 12.499914570480142
-39.103781223998297 12.492788650120087
-39.100699273581938 12.485542133804103
-39.097872399428496 12.478192399460587
-39.095280926485593 12.470756448489082
-39.092899713164861 12.463250579399523
-39.090698596113448 12.455690001123315
-39.088645432548361 12.448087982426051
-39.086705627929085 12.440456326164385
-39.08484263844295 12.432805631009687
-39.083024473880108 12.425144230517187
-39.081227039107539 12.417478002280541
-39.079433194860691 12.409810983238264
-39.077637943875992 12.402144329115242
-39.075852805072621 12.3944753341523
-39.074101571492477 12.386798530987155
-39.072424784227792 12.379105116283291
-39.070876507879959 12.371384795465918
-39.069572498616907 12.363619463276043
-39.068541628149376 12.355813151750835
-39.067555081288965 12.348001066224512
-39.066549017981842 12.34019140151238
-39.065446832519015 12.332394627459466
-39.064159092159173 12.32462621598401

        </DataArray>
        <DataArray type="Float32" Name="u" NumberOfComponents="1">
          0 0.007874015748031496 0.015748031496062992 0.023622047244094488 0.031496062992125984 0.03937007874015748 0.047244094488188976 0.055118110236220472 0.062992125984251968 0.070866141732283464 0.07874015748031496 0.086614173228346455 0.094488188976377951 0.10236220472440945 0.11023622047244094 0.11811023622047244 0.12598425196850394 0.13385826771653545 0.14173228346456693 0.14960629921259844 0.15748031496062992 0.16535433070866143 0.17322834645669291 0.18110236220472442 0.1889763779527559 0.19685039370078741 0.20472440944881889 0.2125984251968504 0.22047244094488189 0.2283464566929134 0.23622047244094488 0.24409448818897639 0.25196850393700787 0.25984251968503935 0.26771653543307089 0.27559055118110237 0.28346456692913385 0.29133858267716534 0.29921259842519687 0.30708661417322836 0.31496062992125984 0.32283464566929132 0.33070866141732286 0.33858267716535434 0.34645669291338582 0.3543307086614173 0.36220472440944884 0.37007874015748032 0.37795275590551181 0.38582677165354329 0.39370078740157483 0.40157480314960631 0.40944881889763779 0.41732283464566927 0.42519685039370081 0.43307086614173229 0.44094488188976377 0.44881889763779526 0.45669291338582679 0.46456692913385828 0.47244094488188976 0.48031496062992124 0.48818897637795278 0.49606299212598426 0.50393700787401574 0.51181102362204722 0.51968503937007871 0.52755905511811019 0.53543307086614178 0.54330708661417326 0.55118110236220474 0.55905511811023623 0.56692913385826771 0.57480314960629919 0.58267716535433067 0.59055118110236215 0.59842519685039375 0.60629921259842523 0.61417322834645671 0.62204724409448819 0.62992125984251968 0.63779527559055116 0.64566929133858264 0.65354330708661412 0.66141732283464572 0.6692913385826772 0.67716535433070868 0.68503937007874016 0.69291338582677164 0.70078740157480313 0.70866141732283461 0.71653543307086609 0.72440944881889768 0.73228346456692917 0.74015748031496065 0.74803149606299213 0.75590551181102361 0.76377952755905509 0.77165354330708658 0.77952755905511806 0.78740157480314965 0.79527559055118113 0.80314960629921262 0.8110236220472441 0.81889763779527558 0.82677165354330706 0.83464566929133854 0.84251968503937003 0.85039370078740162 0.8582677165354331 0.86614173228346458 0.87401574803149606 0.88188976377952755 0.88976377952755903 0.89763779527559051 0.90551181102362199 0.91338582677165359 0.92125984251968507 0.92913385826771655 0.93700787401574803 0.94488188976377951 0.952755905511811 0.96062992125984248 0.96850393700787396 0.97637795275590555 0.98425196850393704 0.99212598425196852 1
        </DataArray>
      </PointData>
      <CellData Scalars="P">
        <DataArray type="Float32" Name="P" NumberOfComponents="1">
          0.023258368671838451 0.069463231022507968 0.13616721859335937 0.2357478297181477 0.37270978689213913 0.54480682210435816 0.7451837425994059 0.96448866178514758 1.1939663479778695 1.4478656335379931 1.6961293028080295 1.9298318056967576 2.168025255868347 2.386115795766933 2.600146298095114 2.7844805525762202 2.9488884706021916 3.0591113745674798 3.1285159619676386 3.1904136886968892 3.2761109191709541 3.4034290625720129 3.5838929405148008 3.8244051922762785 4.1191633670100956 4.4609801672960447 4.8460932929771374 5.2600970286078024 5.6964086730914767 6.1410538743743759 6.5912824611860552 7.0360470521594678 7.4776128833115463 7.911197739819074 8.3463330727750051 8.781719561917825 9.2322685713356396 9.6988535889134884 10.190861486798372 10.72599475795769 11.302325040881493 11.921876494367527 12.596462495638004 13.305234383911067 14.032912448406444 14.761123857907323 15.468266483493032 16.130423806044579 16.72248179243595 17.208550572224873 17.61016037156103 17.902162254384923 18.083547645913612 18.168155400625462 18.164684714661462 18.096811394296246 17.989712502930793 17.875250234216569 17.759283662640502 17.702286638836735 17.703292627954752 17.839667881723759 18.114044486312984 18.628517310465 19.42214279667316 20.458705483821227 21.737512016428461 23.244845896132354 24.851188812841137 26.602904799344596 28.453982346396856 30.346358244985318 32.212667711137037 33.975578970312839 35.554929878719946 36.852582037437102 37.751834971939729 38.264156185121408 38.372611658735707 38.074729398217286 37.382402268742439 36.320582003430388 34.925094036476096 33.239918263153299 31.308409974203411 29.183191339160416 26.912125215891749 24.542458067046443 22.118836393106786 19.682281704020085 17.269555547954749 14.913694899623554 12.642000033717556 10.47832812304179 8.4343744086125856 6.5324652005700719 4.7867646019838235 3.2155572386053359 1.9200995298140566 0.90793578925030449 0.12801147865689419 -0.50380516408745102 -1.0935511477425766 -1.7460430705301302 -2.5521732706665388 -3.5714041043178453 -4.8163256777499397 -6.2435595971818483 -7.7543764586425157 -9.2099543726833861 -10.478840092310005 -11.438829190985141 -12.013074885587383 -12.24630448546408 -12.261481240446063 -12.192372647832434 -12.151613617938965 -12.104970999774778 -11.830522152492893 -10.8758485126286 -8.7041773608683517 -3.874865468231671 1.5434064296427681 2.190008777677535 1.8186152852607482 0.85161363857477024 -0.024269485573762885
        </DataArray>
      </CellData>
      <Points>
        <DataArray type="Float32" NumberOfComponents="3" format="ascii">
          -39.697856256377797 12.576991827551806 0
          -39.69693167217828 12.56917227201523 0
          -39.696017766139938 12.561351472145605 0
          -39.695091378331981 12.553532138344572 0
          -39.69412777793557 12.545717285731399 0
          -39.69310112003464 12.537910433282402 0
          -39.691984881499721 12.53011583369666 0
          -39.690752057891977 12.522338751107494 0
          -39.689375685345773 12.514585694935494 0
          -39.687829933957644 12.506864511013179 0
          -39.686074081294301 12.499188238972604 0
          -39.684081575353787 12.491569799848461 0
          -39.681827726952982 12.484024352431527 0
          -39.67927211960685 12.476575468135071 0
          -39.67639229630354 12.46924556597882 0
          -39.6731512719739 12.46206775115043 0
          -39.669529275389252 12.455074083405504 0
          -39.665494327423438 12.448309825338688 0
          -39.661035474875483 12.441816667304822 0
          -39.656145249660476 12.435641994399793 0
          -39.65085368743415 12.429807728292673 0
          -39.6451899844499 12.42433413735599 0
          -39.639184871772301 12.419237583630906 0
          -39.632869012614051 12.414531759814551 0
          -39.626271640042219 12.410229634403136 0
          -39.619422824627044 12.406340391411206 0
          -39.612352240750731 12.402870764701508 0
          -39.605087794616473 12.399828007288562 0
          -39.597657947728173 12.397215140336275 0
          -39.590089693294637 12.395035592973587 0
          -39.582410099209994 12.393288606877048 0
          -39.574644766091836 12.391974464423193 0
          -39.566819031442463 12.391088757483496 0
          -39.558956860526152 12.390628224853554 0
          -39.551081383081439 12.390585037720232 0
          -39.543214461622618 12.390953444410805 0
          -39.535376607178129 12.391722427151297 0
          -39.527587316324194 12.392884037284293 0
          -39.519864290569892 12.394425566013288 0
          -39.512223596641036 12.396333506758747 0
          -39.504680846347824 12.398597649631576 0
          -39.49724935762999 12.401203671444785 0
          -39.489940765987868 12.404136550850945 0
          -39.482767330623581 12.407385864011008 0
          -39.475738272480996 12.410936561535699 0
          -39.468861331131478 12.414773445374957 0
          -39.462142723709889 12.41888114498474 0
          -39.455587026361762 12.423244010233679 0
          -39.449197031121841 12.427846031713173 0
          -39.442973434707298 12.432670590965186 0
          -39.436909927415641 12.437694759673761 0
          -39.431006727271416 12.442906239476404 0
          -39.425256779320335 12.448286231160264 0
          -39.419649855202941 12.453815024593705 0
          -39.414178704338617 12.459478121045095 0
          -39.408826925552006 12.465254076804685 0
          -39.403580969269051 12.471126237921458 0
          -39.398425273153791 12.477077739381299 0
          -39.393340962445386 12.483090286660826 0
          -39.388315976977793 12.489152464151154 0
          -39.383326268405554 12.495243687471895 0
          -39.378355227026127 12.501350149433367 0
          -39.373376029594816 12.507449977874225 0
          -39.368367896490696 12.513526109414046 0
          -39.363299854446545 12.519552425710248 0
          -39.358141284012973 12.525501525877774 0
          -39.352868982653483 12.531350194191031 0
          -39.34746033885181 12.537073168224072 0
          -39.341893444080867 12.542642516793418 0
          -39.33615819312476 12.548038553136491 0
          -39.330238134365935 12.553231414048442 0
          -39.324120220270608 12.558189921402528 0
          -39.317795420612903 12.562881984294412 0
          -39.311259076439825 12.567274894125246 0
          -39.304511362313967 12.571336009603602 0
          -39.297556977646124 12.575032434793329 0
          -39.290406536337784 12.578334057842303 0
          -39.283080964729137 12.581226746736416 0
          -39.275598992111796 12.583687133116543 0
          -39.267983176962737 12.585695651912173 0
          -39.260259170810841 12.587236910210274 0
          -39.252454937157587 12.588300034460845 0
          -39.244599885895184 12.588878499625404 0
          -39.236724109633073 12.588970151886986 0
          -39.228857653223336 12.588576953053936 0
          -39.22103003358886 12.587703250613847 0
          -39.213269556671868 12.586358249452017 0
          -39.20560292951177 12.584553876049238 0
          -39.19805498181789 12.582304377978256 0
          -39.190648520326931 12.579625783091203 0
          -39.183404302001598 12.576535371945745 0
          -39.176341114372327 12.573051183240056 0
          -39.1694758795716 12.569191690826779 0
          -39.162824030477303 12.564975163410629 0
          -39.156399770917552 12.560419471323295 0
          -39.150217447068115 12.5555405585879 0
          -39.14429005333858 12.550354934354187 0
          -39.138630485268493 12.544878241368837 0
          -39.133251939943023 12.539125251590038 0
          -39.128168667546277 12.533110163359973 0
          -39.12337976541707 12.526858449065779 0
          -39.118884243569461 12.520392739978822 0
          -39.114679423180498 12.513734440561754 0
          -39.110763390574455 12.506902380670052 0
          -39.107132676356372 12.499914570480142 0
          -39.103781223998297 12.492788650120087 0
          -39.100699273581938 12.485542133804103 0
          -39.097872399428496 12.478192399460587 0
          -39.095280926485593 12.470756448489082 0
          -39.092899713164861 12.463250579399523 0
          -39.090698596113448 12.455690001123315 0
          -39.088645432548361 12.448087982426051 0
          -39.086705627929085 12.440456326164385 0
          -39.08484263844295 12.432805631009687 0
          -39.083024473880108 12.425144230517187 0
          -39.081227039107539 12.417478002280541 0
          -39.079433194860691 12.409810983238264 0
          -39.077637943875992 12.402144329115242 0
          -39.075852805072621 12.3944753341523 0
          -39.074101571492477 12.386798530987155 0
          -39.072424784227792 12.379105116283291 0
          -39.070876507879959 12.371384795465918 0
          -39.069572498616907 12.363619463276043 0
          -39.068541628149376 12.355813151750835 0
          -39.067555081288965 12.348001066224512 0
          -39.066549017981842 12.34019140151238 0
          -39.065446832519015 12.332394627459466 0
          -39.064159092159173 12.32462621598401 0
        </DataArray>
      </Points>
      <Cells>
        <DataArray type="Int32" Name="connectivity" format="ascii">
          0 1 1 2 2 3 3 4 4 5 5 6 6 7 7 8 8 9 9 10 10 11 11 12 12 13 13 14 14 15 15 16 16 17 17 18 18 19 19 20 20 21 21 22 22 23 23 24 24 25 25 26 26 27 27 28 28 29 29 30 30 31 31 32 32 33 33 34 34 35 35 36 36 37 37 38 38 39 39 40 40 41 41 42 42 43 43 44 44 45 45 46 46 47 47 48 48 49 49 50 50 51 51 52 52 53 53 54 54 55 55 56 56 57 57 58 58 59 59 60 60 61 61 62 62 63 63 64 64 65 65 66 66 67 67 68 68 69 69 70 70 71 71 72 72 73 73 74 74 75 75 76 76 77 77 78 78 79 79 80 80 81 81 82 82 83 83 84 84 85 85 86 86 87 87 88 88 89 89 90 90 91 91 92 92 93 93 94 94 95 95 96 96 97 97 98 98 99 99 100 100 101 101 102 102 103 103 104 104 105 105 106 106 107 107 108 108 109 109 110 110 111 111 112 112 113 113 114 114 115 115 116 116 117 117 118 118 119 119 120 120 121 121 122 122 123 123 124 124 125 125 126 126 127 
        </DataArray>
        <DataArray type="Int32" Name="offsets" format="ascii">
          2 4 6 8 10 12 14 16 18 20 22 24 26 28 30 32 34 36 38 40 42 44 46 48 50 52 54 56 58 60 62 64 66 68 70 72 74 76 78 80 82 84 86 88 90 92 94 96 98 100 102 104 106 108 110 112 114 116 118 120 122 124 126 128 130 132 134 136 138 140 142 144 146 148 150 152 154 156 158 160 162 164 166 168 170 172 174 176 178 180 182 184 186 188 190 192 194 196 198 200 202 204 206 208 210 212 214 216 218 220 222 224 226 228 230 232 234 236 238 240 242 244 246 248 250 252 254 
        </DataArray>
        <DataArray type="Int32" Name="types" format="ascii">
          3 3 3 3 3 3 3 3 3 3 3 3 3 3 3 3 3 3 3 3 3 3 3 3 3 3 3 3 3 3 3 3 3 3 3 3 3 3 3 3 3 3 3 3 3 3 3 3 3 3 3 3 3 3 3 3 3 3 3 3 3 3 3 3 3 3 3 3 3 3 3 3 3 3 3 3 3 3 3 3 3 3 3 3 3 3 3 3 3 3 3 3 3 3 3 3 3 3 3 3 3 3 3 3 3 3 3 3 3 3 3 3 3 3 3 3 3 3 3 3 3 3 3 3 3 3 3         </DataArray>
      </Cells>
    </Piece>
  </UnstructuredGrid>
</VTKFile>
<!-- DATA


-->
