<?xml version="1.0"?>
<VTKFile type="UnstructuredGrid" version="0.1" byte_order="LittleEndian">
  <UnstructuredGrid>
    <Piece NumberOfPoints="128" NumberOfCells="127">
      <PointData Scalars="u">
        <DataArray type="Float32" Name="Y" NumberOfComponents="2">

0 0
0.017735261315393221 -0.0068369483885693041
0.016586303114948329 -0.019915500479402125
0.017535094073884181 -0.036032580113988459
0.020670137692059831 -0.055012255316809318
0.025829507755412057 -0.076462755969306129
0.032594385078961577 -0.099829672461708763
0.040319044692211876 -0.12443454909357753
0.048190336485133767 -0.14949509245714018
0.055309390337283146 -0.17412930542151317
0.06078866357565281 -0.19735056526798245
0.063857655564422425 -0.21806356566199608
0.063970119125416697 -0.2350719133548877
0.060904353741520423 -0.2471069186900183
0.05484659432041572 -0.2528837956401318
0.046446405036869573 -0.25118637258909188
0.03683329295542917 -0.24097513003194532
0.027586266912755293 -0.22150694015202116
0.020653112345203724 -0.19244961697283813
0.018223341571424238 -0.15397169638670916
0.022566940483363211 -0.10678884212251982
0.035858401912405531 -0.052153286714861739
0.0600101875981148 0.0082188596068525945
0.096540197681372827 0.072277381144821129
0.1464934845604296 0.13781001989930924
0.21042997895802426 0.20263510557827985
0.28847913556818827 0.26479061197653331
0.38045150774195169 0.32269818513057769
0.48598859640696901 0.37528777918073264
0.60472743975727383 0.42207827712738427
0.73645573585193658 0.46321959318804118
0.8812360832296886 0.49951007466566588
1.0394825979789393 0.53240795750535519
1.2119778016163816 0.56405640219990727
1.3998205842479787 0.59733817847071358
1.6042962285751503 0.63596870433396036
1.8266569172492466 0.68462519884535167
2.0677969857770404 0.74909519231796151
2.3278038491362638 0.83640922069917145
2.6053668245176325 0.95489989956216326
2.8970372130738786 1.1141033034233445
3.1963603353411307 1.3243915945485853
3.4929501235715561 1.5962053266086162
3.7716531761852368 1.9387531144123777
4.012048364580334 2.3580855298693137
4.1886324609888934 2.8545533723415484
4.2721129713416168 3.419847289319538
4.2322043894104588 4.0340836581455797
4.0421296888855922 4.6637033918805644
3.6846128145856327 5.2611755838730678
3.158533990253694 5.7674810289787466
2.6444400731945579 6.0440368035717782
2.2990557578785968 6.0928758788948629
1.9308054059112163 6.0219056410397531
1.5635699842718862 5.8407426617015625
1.2165194843736551 5.5615870614171037
0.90385617604018254 5.1983033371873848
0.63490803577707544 4.7654714265543534
0.41450732471829305 4.2775373092096372
0.24356998037903516 3.748143006147393
0.11978915384790999 3.1896705960431504
0.038366594781129366 2.6129987971108828
-0.0072768059091474196 2.0274458253118648
-0.024850222104516234 1.4408582573463111
-0.022622558978335386 0.85980057113461938
-0.0089389074270065007 0.28980135412877067
0.0081796072320045252 -0.26438261095989418
0.021361187583124146 -0.7985160331737402
0.024144005469169554 -1.3086725099685494
0.011180953228253585 -1.791076046462255
-0.021605493993393732 -2.2420061014570609
-0.076915694804363777 -2.6577691422561212
-0.15601300210858221 -3.0347338388988105
-0.25871421956961949 -3.3694217695530573
-0.38343355919469568 -3.6586409706779062
-0.52728234490567061 -3.8996460933850066
-0.68622422169374175 -4.090306640781713
-0.85528196945070212 -4.2292640734867728
-1.0287877524007045 -4.3160596915052327
-1.200664457069383 -4.3512181477365814
-1.3647224003451011 -4.3362759931657768
-1.5149537308337366 -4.2737503211522458
-1.6458066857035913 -4.1670487033251309
-1.7524235918663018 -4.0203274420133326
-1.8308298949437474 -3.838309996703301
-1.8780660826879467 -3.6260807314466059
-1.8922594999803677 -3.3888705825745
-1.8726380460553806 -3.1318508513758956
-1.8194920031336552 -2.8599493292239937
-1.7340933369136602 -2.5776997969056641
-1.6185835241548385 -2.289132128391989
-1.475841307800926 -1.9977062900924185
-1.3093409447451856 -1.706289893041065
-1.1230098032305138 -1.4171759296027129
-0.92109194674933836 -1.1321350639890098
-0.70802196279244312 -0.85249537075771442
-0.48831106034284022 -0.57924165208260958
-0.26644559716281502 -0.31312627842924773
-0.0467968505564757 -0.05478373498173944
0.16645992121945799 0.19515842328624913
0.36941926935657327 0.43597880778097192
0.55851400883106295 0.66677741457755391
0.73057939962038287 0.88641171693336707
0.88291308203337604 1.0934575269202158
1.013329625990689 1.286197401527859
1.1202074249492107 1.462638104706776
1.2025247465436915 1.6205572281093072
1.2598812063614671 1.7575775536209552
1.2925008940110239 1.8712661859923709
1.3012139419764015 1.9592540096043247
1.2874145154160859 2.0193697723660269
1.2529949677122911 2.0497822195284567
1.2002581245009256 2.0491433146614471
1.1318121275427921 2.0167257627823343
1.0504547301901033 1.9525487809784889
0.95905609702985262 1.8574872407721772
0.86045072536028133 1.7333607414852716
0.75734979903016397 1.583000610310773
0.65228486824954923 1.4102939913639163
0.54759203143215929 1.2202048572114772
0.44544263781741245 1.0187718404974084
0.34792185061330461 0.81308230486844169
0.25715020713022252 0.61122133243224019
0.17543570357264546 0.42219378873493774
0.10543522852536409 0.25581796269278084
0.05029494922550256 0.12259107574436443
0.013730424643370353 0.033530545224821691
0 0

        </DataArray>
        <DataArray type="Float32" Name="W" NumberOfComponents="2">

-1.2222912468891651 0.50645738106409122
-1.2145116325149869 0.50767324871393027
-1.2067923325532597 0.50922663053336181
-1.1991359087179523 0.51106500663085286
-1.1915385550168214 0.51313395621014746
-1.1839910116570214 0.51537779885857316
-1.1764796957536208 0.51774006580793797
-1.1689879976170197 0.52016382147367657
-1.1614976914638981 0.52259187399584661
-1.1539904101181786 0.52496692730850736
-1.1464491333271685 0.5272317352717617
-1.1388596379177156 0.52932931986235932
-1.1312118550872694 0.53120331000004295
-1.1235010763858213 0.53279844539662824
-1.1157289468202982 0.53406127147928861
-1.1079041828899225 0.53494102819990974
-1.100042957221584 0.53539070932458688
-1.0921689014501232 0.53536824218860846
-1.0843126959133735 0.53483771398038671
-1.0765112382886277 0.53377055261143447
-1.0688064118561429 0.53214656103955238
-1.0612435047933482 0.52995470557822777
-1.0538693611010896 0.52719357195797101
-1.0467303675252657 0.52387142681662258
-1.0398703957185844 0.52000585441545188
-1.0333288225685295 0.51562297498648735
-1.0271387433577168 0.51075628783466542
-1.0213254732059411 0.50544521482961979
-1.0159054045955607 0.49973344466824604
-1.0108852563139192 0.49366719299285422
-1.0062617159383671 0.4872934973644259
-1.0020214479600515 0.48065865995582974
-0.99814141602825279 0.47380693657043893
-0.99458945282001709 0.46677955084830597
-0.99132500579248173 0.45961409011941912
-0.98829999159193105 0.45234431680711201
-0.98545970534647098 0.44500040835503468
-0.98274375200579744 0.43760962012972165
-0.98008699342924099 0.4301973492882134
-0.97742053482820257 0.42278856172691714
-0.9746728047684845 0.41540952651819962
-0.97177081085168127 0.40808977966570026
-0.96864167392881306 0.40086420855051991
-0.96521455123807898 0.39377510807328892
-0.96142304552637448 0.38687400962139373
-0.95720815424285033 0.38022302928040924
-0.95252173225415349 0.37389543305259504
-0.94733031952528512 0.36797509255140187
-0.94161902779548956 0.36255452947571865
-0.93539500897053074 0.35773134744521873
-0.92868988338581249 0.35360304329728115
-0.92156044481513466 0.35026047181658737
-0.91426705402302999 0.34729264352731948
-0.90683112638182117 0.34470258555753397
-0.8992754947145839 0.3424858965228626
-0.89162292859645342 0.34063134287008939
-0.88389494577704808 0.33912161540411445
-0.87611093163842979 0.33793418899654387
-0.8682875608884929 0.33704222663215982
-0.86043849800863681 0.33641547512500547
-0.85257434052412107 0.33602111096249626
-0.84470276208984274 0.33582450800830443
-0.83682881003976095 0.33578991197602726
-0.82895531334267269 0.33588101813593535
-0.82108336061349474 0.33606145776965929
-0.81321281281931701 0.33629520512932815
-0.80534282070137908 0.33654692017037718
-0.79747232210507268 0.33678224343478957
-0.78960049904706664 0.33696805860676587
-0.78172717836111194 0.33707273592402243
-0.77385316322884867 0.33706636627160547
-0.76598048599454938 0.33692099184581265
-0.75811257559352996 0.33661083515169044
-0.75025433588372648 0.33611252415139758
-0.74241213428804642 0.33540530793854612
-0.73459370347214203 0.33447125465683308
-0.72680796223866928 0.33329542173136556
-0.71906476526076502 0.33186598797988048
-0.71137459447740536 0.33017433786121914
-0.70374820766680468 0.32821508993047005
-0.69619626164195347 0.32598606432140453
-0.68872892846567901 0.32348818748539354
-0.68135552293976498 0.32072533613047366
-0.67408415837368096 0.31770412594479541
-0.6669214453904041 0.31443365389364203
-0.65987224549015078 0.31092520534887164
-0.65293948755183284 0.30719193884001733
-0.64612405172481768 0.30324856171729808
-0.63942472155981489 0.29911100951295344
-0.63283820201150143 0.29479614040245344
-0.6263591983085155 0.29032145409759219
-0.61998054873504105 0.28570484198561202
-0.61369340312375276 0.28096437260660606
-0.60748743827057405 0.27611811386083018
-0.60135110144159198 0.27118399084585065
-0.59527187351387101 0.26617967608093024
-0.58923654392733182 0.2611225071741709
-0.58323149038572231 0.25602942577400367
-0.57724295701551553 0.25091693093217415
-0.57125732538876672 0.24580103977566409
-0.56526137339201354 0.24069724860772768
-0.559242517366489 0.23562048819017078
-0.55318903327568703 0.23058506794999872
-0.54709025292117885 0.22560460514787298
-0.54093673149072163 0.22069193658162611
-0.53472038305654901 0.21585901210596717
-0.52843458111629193 0.21111677105110555
-0.52207422194121578 0.20647500443098218
-0.51563574940022305 0.20194220755189615
-0.50911714106565742 0.19752542916814433
-0.5025178567435582 0.19323012459144154
-0.49583875203299571 0.18906002106778144
-0.48908196099694529 0.18501700423446762
-0.48225075338327017 0.18110103453737936
-0.47534937291574925 0.17731010213517706
-0.46838286382911676 0.17364022808837976
-0.46135689291482751 0.17008551860018256
-0.45427757377867284 0.16663827783149765
-0.44715129874450671 0.16328918344408114
-0.43998458189605388 0.1600275276050766
-0.4327839142375644 0.15684152475548507
-0.42555562906972033 0.15371868600793631
-0.41830577270978875 0.15064625856601085
-0.41103997301916922 0.14761172700224123
-0.40376329630893765 0.14460337156278316
-0.39648008261438134 0.14161087690444218
-0.38919375063445744 0.13862598292566333
-0.38190656736907813 0.13564316784985808

        </DataArray>
        <DataArray type="Float32" Name="u" NumberOfComponents="1">
          0 0.007874015748031496 0.015748031496062992 0.023622047244094488 0.031496062992125984 0.03937007874015748 0.047244094488188976 0.055118110236220472 0.062992125984251968 0.070866141732283464 0.07874015748031496 0.086614173228346455 0.094488188976377951 0.10236220472440945 0.11023622047244094 0.11811023622047244 0.12598425196850394 0.13385826771653545 0.14173228346456693 0.14960629921259844 0.15748031496062992 0.16535433070866143 0.17322834645669291 0.18110236220472442 0.1889763779527559 0.19685039370078741 0.20472440944881889 0.2125984251968504 0.22047244094488189 0.2283464566929134 0.23622047244094488 0.24409448818897639 0.25196850393700787 0.25984251968503935 0.26771653543307089 0.27559055118110237 0.28346456692913385 0.29133858267716534 0.29921259842519687 0.30708661417322836 0.31496062992125984 0.32283464566929132 0.33070866141732286 0.33858267716535434 0.34645669291338582 0.3543307086614173 0.36220472440944884 0.37007874015748032 0.37795275590551181 0.38582677165354329 0.39370078740157483 0.40157480314960631 0.40944881889763779 0.41732283464566927 0.42519685039370081 0.43307086614173229 0.44094488188976377 0.44881889763779526 0.45669291338582679 0.46456692913385828 0.47244094488188976 0.48031496062992124 0.48818897637795278 0.49606299212598426 0.50393700787401574 0.51181102362204722 0.51968503937007871 0.52755905511811019 0.53543307086614178 0.54330708661417326 0.55118110236220474 0.55905511811023623 0.56692913385826771 0.57480314960629919 0.58267716535433067 0.59055118110236215 0.59842519685039375 0.60629921259842523 0.61417322834645671 0.62204724409448819 0.62992125984251968 0.63779527559055116 0.64566929133858264 0.65354330708661412 0.66141732283464572 0.6692913385826772 0.67716535433070868 0.68503937007874016 0.69291338582677164 0.70078740157480313 0.70866141732283461 0.71653543307086609 0.72440944881889768 0.73228346456692917 0.74015748031496065 0.74803149606299213 0.75590551181102361 0.76377952755905509 0.77165354330708658 0.77952755905511806 0.78740157480314965 0.79527559055118113 0.80314960629921262 0.8110236220472441 0.81889763779527558 0.82677165354330706 0.83464566929133854 0.84251968503937003 0.85039370078740162 0.8582677165354331 0.86614173228346458 0.87401574803149606 0.88188976377952755 0.88976377952755903 0.89763779527559051 0.90551181102362199 0.91338582677165359 0.92125984251968507 0.92913385826771655 0.93700787401574803 0.94488188976377951 0.952755905511811 0.96062992125984248 0.96850393700787396 0.97637795275590555 0.98425196850393704 0.99212598425196852 1
        </DataArray>
      </PointData>
      <CellData Scalars="P">
        <DataArray type="Float32" Name="P" NumberOfComponents="1">
          0.0042898520809808516 -0.0078311990998584449 -0.036704473618617596 -0.075330396798896859 -0.1149080485399487 -0.14619406949163033 -0.1608178439565377 -0.15243276295426778 -0.11761752403107417 -0.056472629017865185 0.027115951242822459 0.12555116102558947 0.22792215271106819 0.32068974266642253 0.38860545213999903 0.41578990601212984 0.38687890095210042 0.28813346967731196 0.10840753780898812 -0.16012354596488704 -0.52154681213583387 -0.97614480936591719 -1.5206701026729841 -2.1489055457156256 -2.8524117526905428 -3.6213316636804791 -4.4451070356772178 -5.3129653408730126 -6.214057156509722 -7.1371604584809107 -8.0699146833649298 -8.9975993795495235 -9.9015263394466935 -10.757168987255262 -11.532209513168095 -12.184745669405855 -12.661968727697586 -12.899703754178375 -12.823290409494358 -12.350365671876116 -11.396164665503186 -9.8819397664885482 -7.7469487792953933 -4.9641012282860295 -1.5586979899435978 2.3712925514900296 6.6362656250728342 10.941542209622249 14.88474510179463 17.969403199316694 19.63875651216722 19.54158792534254 18.725590737125678 17.325985453540529 15.48982625767789 13.365060922950899 11.092164694341013 8.798128317180204 6.5925425679006304 4.565469652611597 2.7867571845460528 1.3064455341971679 0.15594373561882019 -0.65030461015476571 -1.1128857682491751 -1.245370164947869 -1.0722600127814079 -0.6269872407387056 0.050015762781040432 0.91317196066347384 1.9135514997668492 3.0006091421427197 4.1238693903525609 5.234549112024248 6.2870933052932969 7.2405864776911768 8.0599924844553552 8.7171715522416946 9.1916257414974094 9.4709334301566503 9.5508486690314118 9.4350607060743599 9.1346302246064273 8.6671392763025707 8.0556090853154245 7.3272519858322696 6.5121296737909979 5.6417895534487679 4.7479449250513168 3.8612544092500234 3.010243011309659 2.2203933324140839 1.5134221903452574 0.90674650892614184 0.41313351850785457 0.040524364014615379 -0.20798297359381726 -0.33400640015775179 -0.34362220431026674 -0.24698967126746521 -0.057868170040759608 0.20696443567927497 0.52838365408199617 0.88567110167003427 1.2573360220438614 1.6219891539014353 1.9592467351100629 2.2506356638659528 2.4804637299393639 2.6366121717380562 2.7112024967778212 2.701086438912339 2.6081079995894547 2.43909054023529 2.2055105732463383 1.9228338713878055 1.6095093499037383 1.2856423891157498 0.97140226266109786 0.68525823651595152 0.44218519464753597 0.25203065379824557 0.11828723142113806 0.037561944779153374 6.6979015371144797e-05 -0.0085365159929544319 -0.0036440924462637393
        </DataArray>
      </CellData>
      <Points>
        <DataArray type="Float32" NumberOfComponents="3" format="ascii">
          -1.2222912468891651 0.50645738106409122 0
          -1.2145116325149869 0.50767324871393027 0
          -1.2067923325532597 0.50922663053336181 0
          -1.1991359087179523 0.51106500663085286 0
          -1.1915385550168214 0.51313395621014746 0
          -1.1839910116570214 0.51537779885857316 0
          -1.1764796957536208 0.51774006580793797 0
          -1.1689879976170197 0.52016382147367657 0
          -1.1614976914638981 0.52259187399584661 0
          -1.1539904101181786 0.52496692730850736 0
          -1.1464491333271685 0.5272317352717617 0
          -1.1388596379177156 0.52932931986235932 0
          -1.1312118550872694 0.53120331000004295 0
          -1.1235010763858213 0.53279844539662824 0
          -1.1157289468202982 0.53406127147928861 0
          -1.1079041828899225 0.53494102819990974 0
          -1.100042957221584 0.53539070932458688 0
          -1.0921689014501232 0.53536824218860846 0
          -1.0843126959133735 0.53483771398038671 0
          -1.0765112382886277 0.53377055261143447 0
          -1.0688064118561429 0.53214656103955238 0
          -1.0612435047933482 0.52995470557822777 0
          -1.0538693611010896 0.52719357195797101 0
          -1.0467303675252657 0.52387142681662258 0
          -1.0398703957185844 0.52000585441545188 0
          -1.0333288225685295 0.51562297498648735 0
          -1.0271387433577168 0.51075628783466542 0
          -1.0213254732059411 0.50544521482961979 0
          -1.0159054045955607 0.49973344466824604 0
          -1.0108852563139192 0.49366719299285422 0
          -1.0062617159383671 0.4872934973644259 0
          -1.0020214479600515 0.48065865995582974 0
          -0.99814141602825279 0.47380693657043893 0
          -0.99458945282001709 0.46677955084830597 0
          -0.99132500579248173 0.45961409011941912 0
          -0.98829999159193105 0.45234431680711201 0
          -0.98545970534647098 0.44500040835503468 0
          -0.98274375200579744 0.43760962012972165 0
          -0.98008699342924099 0.4301973492882134 0
          -0.97742053482820257 0.42278856172691714 0
          -0.9746728047684845 0.41540952651819962 0
          -0.97177081085168127 0.40808977966570026 0
          -0.96864167392881306 0.40086420855051991 0
          -0.96521455123807898 0.39377510807328892 0
          -0.96142304552637448 0.38687400962139373 0
          -0.95720815424285033 0.38022302928040924 0
          -0.95252173225415349 0.37389543305259504 0
          -0.94733031952528512 0.36797509255140187 0
          -0.94161902779548956 0.36255452947571865 0
          -0.93539500897053074 0.35773134744521873 0
          -0.92868988338581249 0.35360304329728115 0
          -0.92156044481513466 0.35026047181658737 0
          -0.91426705402302999 0.34729264352731948 0
          -0.90683112638182117 0.34470258555753397 0
          -0.8992754947145839 0.3424858965228626 0
          -0.89162292859645342 0.34063134287008939 0
          -0.88389494577704808 0.33912161540411445 0
          -0.87611093163842979 0.33793418899654387 0
          -0.8682875608884929 0.33704222663215982 0
          -0.86043849800863681 0.33641547512500547 0
          -0.85257434052412107 0.33602111096249626 0
          -0.84470276208984274 0.33582450800830443 0
          -0.83682881003976095 0.33578991197602726 0
          -0.82895531334267269 0.33588101813593535 0
          -0.82108336061349474 0.33606145776965929 0
          -0.81321281281931701 0.33629520512932815 0
          -0.80534282070137908 0.33654692017037718 0
          -0.79747232210507268 0.33678224343478957 0
          -0.78960049904706664 0.33696805860676587 0
          -0.78172717836111194 0.33707273592402243 0
          -0.77385316322884867 0.33706636627160547 0
          -0.76598048599454938 0.33692099184581265 0
          -0.75811257559352996 0.33661083515169044 0
          -0.75025433588372648 0.33611252415139758 0
          -0.74241213428804642 0.33540530793854612 0
          -0.73459370347214203 0.33447125465683308 0
          -0.72680796223866928 0.33329542173136556 0
          -0.71906476526076502 0.33186598797988048 0
          -0.71137459447740536 0.33017433786121914 0
          -0.70374820766680468 0.32821508993047005 0
          -0.69619626164195347 0.32598606432140453 0
          -0.68872892846567901 0.32348818748539354 0
          -0.68135552293976498 0.32072533613047366 0
          -0.67408415837368096 0.31770412594479541 0
          -0.6669214453904041 0.31443365389364203 0
          -0.65987224549015078 0.31092520534887164 0
          -0.65293948755183284 0.30719193884001733 0
          -0.64612405172481768 0.30324856171729808 0
          -0.63942472155981489 0.29911100951295344 0
          -0.63283820201150143 0.29479614040245344 0
          -0.6263591983085155 0.29032145409759219 0
          -0.61998054873504105 0.28570484198561202 0
          -0.61369340312375276 0.28096437260660606 0
          -0.60748743827057405 0.27611811386083018 0
          -0.60135110144159198 0.27118399084585065 0
          -0.59527187351387101 0.26617967608093024 0
          -0.58923654392733182 0.2611225071741709 0
          -0.58323149038572231 0.25602942577400367 0
          -0.57724295701551553 0.25091693093217415 0
          -0.57125732538876672 0.24580103977566409 0
          -0.56526137339201354 0.24069724860772768 0
          -0.559242517366489 0.23562048819017078 0
          -0.55318903327568703 0.23058506794999872 0
          -0.54709025292117885 0.22560460514787298 0
          -0.54093673149072163 0.22069193658162611 0
          -0.53472038305654901 0.21585901210596717 0
          -0.52843458111629193 0.21111677105110555 0
          -0.52207422194121578 0.20647500443098218 0
          -0.51563574940022305 0.20194220755189615 0
          -0.50911714106565742 0.19752542916814433 0
          -0.5025178567435582 0.19323012459144154 0
          -0.49583875203299571 0.18906002106778144 0
          -0.48908196099694529 0.18501700423446762 0
          -0.48225075338327017 0.18110103453737936 0
          -0.47534937291574925 0.17731010213517706 0
          -0.46838286382911676 0.17364022808837976 0
          -0.46135689291482751 0.17008551860018256 0
          -0.45427757377867284 0.16663827783149765 0
          -0.44715129874450671 0.16328918344408114 0
          -0.43998458189605388 0.1600275276050766 0
          -0.4327839142375644 0.15684152475548507 0
          -0.42555562906972033 0.15371868600793631 0
          -0.41830577270978875 0.15064625856601085 0
          -0.41103997301916922 0.14761172700224123 0
          -0.40376329630893765 0.14460337156278316 0
          -0.39648008261438134 0.14161087690444218 0
          -0.38919375063445744 0.13862598292566333 0
          -0.38190656736907813 0.13564316784985808 0
        </DataArray>
      </Points>
      <Cells>
        <DataArray type="Int32" Name="connectivity" format="ascii">
          0 1 1 2 2 3 3 4 4 5 5 6 6 7 7 8 8 9 9 10 10 11 11 12 12 13 13 14 14 15 15 16 16 17 17 18 18 19 19 20 20 21 21 22 22 23 23 24 24 25 25 26 26 27 27 28 28 29 29 30 30 31 31 32 32 33 33 34 34 35 35 36 36 37 37 38 38 39 39 40 40 41 41 42 42 43 43 44 44 45 45 46 46 47 47 48 48 49 49 50 50 51 51 52 52 53 53 54 54 55 55 56 56 57 57 58 58 59 59 60 60 61 61 62 62 63 63 64 64 65 65 66 66 67 67 68 68 69 69 70 70 71 71 72 72 73 73 74 74 75 75 76 76 77 77 78 78 79 79 80 80 81 81 82 82 83 83 84 84 85 85 86 86 87 87 88 88 89 89 90 90 91 91 92 92 93 93 94 94 95 95 96 96 97 97 98 98 99 99 100 100 101 101 102 102 103 103 104 104 105 105 106 106 107 107 108 108 109 109 110 110 111 111 112 112 113 113 114 114 115 115 116 116 117 117 118 118 119 119 120 120 121 121 122 122 123 123 124 124 125 125 126 126 127 
        </DataArray>
        <DataArray type="Int32" Name="offsets" format="ascii">
          2 4 6 8 10 12 14 16 18 20 22 24 26 28 30 32 34 36 38 40 42 44 46 48 50 52 54 56 58 60 62 64 66 68 70 72 74 76 78 80 82 84 86 88 90 92 94 96 98 100 102 104 106 108 110 112 114 116 118 120 122 124 126 128 130 132 134 136 138 140 142 144 146 148 150 152 154 156 158 160 162 164 166 168 170 172 174 176 178 180 182 184 186 188 190 192 194 196 198 200 202 204 206 208 210 212 214 216 218 220 222 224 226 228 230 232 234 236 238 240 242 244 246 248 250 252 254 
        </DataArray>
        <DataArray type="Int32" Name="types" format="ascii">
          3 3 3 3 3 3 3 3 3 3 3 3 3 3 3 3 3 3 3 3 3 3 3 3 3 3 3 3 3 3 3 3 3 3 3 3 3 3 3 3 3 3 3 3 3 3 3 3 3 3 3 3 3 3 3 3 3 3 3 3 3 3 3 3 3 3 3 3 3 3 3 3 3 3 3 3 3 3 3 3 3 3 3 3 3 3 3 3 3 3 3 3 3 3 3 3 3 3 3 3 3 3 3 3 3 3 3 3 3 3 3 3 3 3 3 3 3 3 3 3 3 3 3 3 3 3 3         </DataArray>
      </Cells>
    </Piece>
  </UnstructuredGrid>
</VTKFile>
<!-- DATA


-->
