<?xml version="1.0"?>
<VTKFile type="UnstructuredGrid" version="0.1" byte_order="LittleEndian">
  <UnstructuredGrid>
    <Piece NumberOfPoints="128" NumberOfCells="127">
      <PointData Scalars="u">
        <DataArray type="Float32" Name="Y" NumberOfComponents="2">

0 0
0.14991153234970286 -0.015257170222835289
0.16892761860651817 0.024106335690431639
0.19072131032477452 0.058155936148408235
0.2144396734136918 0.086877507208690863
0.23930756555618174 0.11025419957531576
0.26447833242611019 0.12857431626112586
0.28864011501622155 0.14298983718192346
0.31254394223652032 0.15210373658848342
0.33429787522194121 0.15655560754215964
0.35332718289202325 0.15659899605595162
0.36872084266066152 0.15415355528783026
0.38176267268399289 0.14802245187572408
0.39114849849311251 0.14069262304181493
0.3980587638048137 0.13097345415397324
0.40174039736682915 0.12121312508262132
0.40352724264594436 0.11002848965435036
0.40314439914143035 0.10010440892647519
0.4019460791267892 0.09088104263238643
0.40025744818403652 0.08125233184922781
0.39767127824686399 0.073527706608219806
0.39537996839498912 0.065617680353220492
0.39368565761230168 0.059778658758913722
0.39426565832811883 0.054288022885432517
0.398331312971135 0.051006323841230446
0.40778515875368815 0.049260001510179036
0.42314899658644439 0.047945372986829105
0.44474828084580037 0.048343043425854694
0.47314114072357261 0.049104475522931471
0.50851911480656642 0.051303882890254483
0.55090818123713459 0.054148586842763781
0.60003633110711252 0.058544273336519931
0.6549953359121603 0.064472586935706261
0.71425611557023616 0.072294681703770958
0.77519765146131903 0.082933397748109053
0.83454626347547245 0.095966622320586642
0.89084560397255097 0.11117024422387259
0.94112119850759324 0.13088543573975489
0.98228046185773699 0.1530972883771764
1.0136874885977456 0.17605963480592654
1.0331150032080858 0.20315334492210271
1.0405228499220083 0.22840164925805034
1.0333072718175786 0.25598270790002853
1.0133913085823067 0.27736078750372295
0.9786218028623519 0.29817752819460153
0.93484272830161286 0.30776605845217125
0.88349202305385455 0.30976140570883193
0.82638219184745365 0.30174358140902136
0.75317465588450705 0.29544096167699974
0.66260196238096258 0.29844208371911046
0.57442919715466245 0.28815122864556836
0.49106224684930255 0.26616353955549882
0.41450586283740937 0.23451713368408547
0.34704341685918449 0.19517591267671641
0.28809199836604243 0.15154626006345395
0.23961052963151111 0.10508666094315326
0.20086271240310175 0.058634933752244621
0.17202220782918223 0.013840783235076017
0.15050872001805979 -0.027822662808359856
0.13672108285303167 -0.066828959411381963
0.12796475053870704 -0.10355285227467809
0.12406630138909783 -0.13950316188629708
0.12558899348503438 -0.17591158014328526
0.1302994994191643 -0.21408862314062596
0.13952385976182294 -0.2554935169766766
0.1543800675447686 -0.30049007515956355
0.17471160976123051 -0.34909288349498113
0.20098831211841267 -0.40135322415026281
0.23378707814668004 -0.45730275275989385
0.27370828176044043 -0.51688275878378021
0.32243317491144202 -0.57953824964718104
0.37897326164175493 -0.64639914141042409
0.44537667460513924 -0.7182411233398196
0.5230262648624846 -0.79588512299095804
0.61335658222487854 -0.87995850239361761
0.71783010338656528 -0.9709022117234718
0.83785334101585218 -1.0690092980416857
0.97463849171321659 -1.1745236216724226
1.1293815602018964 -1.2874215452330757
1.3028439459672581 -1.4077419958870987
1.4955488135996124 -1.5355579573885663
1.7076822460451122 -1.6710657844320147
1.9390492879358103 -1.814640644969199
2.1890350594125585 -1.9668794307416715
2.4565442796463985 -2.1286635018252906
2.7399677462754033 -2.3011650948426361
3.0371219399051528 -2.4858468609751392
3.3451125281150849 -2.6845394206902258
3.6604055269188036 -2.8991009722293946
3.9787124482804765 -3.1314226958565539
4.2949802303148408 -3.3834427267938598
4.6034620979230159 -3.6569126517438519
4.8977857513216989 -3.9532145638023386
5.1710864336213813 -4.2731648025673898
5.4162099780920796 -4.6168319505005559
5.6259876921632443 -4.9833984878907547
5.7935828805695806 -5.3710896126746226
5.912863891752032 -5.7772407968805259
5.978750395065819 -6.1985051247044343
5.9875607835747884 -6.63113304225147
5.9371892262637092 -7.0714379337141011
5.8271104971357808 -7.5163171228421675
5.6582966001579962 -7.9636489113390949
5.4327563795623872 -8.4128666387431288
5.150002788727317 -8.8666826676827117
4.8063676389830121 -9.3275647945942541
4.4054794140642386 -9.7924261320999211
3.9441879343861004 -10.260194028580884
3.417527385011851 -10.726999593618046
2.8189742321839835 -11.184177740054711
2.1418707296142174 -11.615874320225679
1.3863940040431646 -11.99679225297343
0.56450254907778308 -12.295359565492962
-0.31377020892752572 -12.47649717085543
-1.2237242867302796 -12.499035081235547
-2.1100662568424844 -12.328039975441058
-2.9235034360878371 -11.935137158439279
-3.595604414880782 -11.309694836463798
-4.0707395479191089 -10.45467351736883
-4.3013811006896443 -9.390489571613319
-4.2602809887560831 -8.1464057639089322
-3.9263955303183655 -6.7770286045974126
-3.3431427390098998 -5.32814754015783
-2.5730394325152908 -3.8557421849857345
-1.6899382097694911 -2.4612364255331687
-0.87190669664513831 -1.2376168641946952
-0.26822965192870285 -0.34702525660589928
0 0

        </DataArray>
        <DataArray type="Float32" Name="W" NumberOfComponents="2">

-36.667421114348578 11.707561237322054
-36.660165977292728 11.704497332357152
-36.653096516557945 11.7010265437412
-36.646231145205377 11.697167860318801
-36.639586346323391 11.692940743677841
-36.633176717597323 11.688364978496937
-36.627015188876321 11.683460324723821
-36.621112791156051 11.678246797980037
-36.615476225452035 11.672747037587291
-36.610113041929814 11.666980445934067
-36.605029098843843 11.660966302492715
-36.60022907046293 11.65472328935571
-36.595712476113235 11.648272325476293
-36.591481037365647 11.641630897388804
-36.587531222352041 11.634818285980087
-36.583861730993569 11.627850745083425
-36.580465907627456 11.620745870020802
-36.57734033638387 11.613518093315692
-36.574474945489463 11.606183342647547
-36.57185845712889 11.598756223326536
-36.569483844071748 11.591248332320164
-36.567336584876521 11.583672343866059
-36.565407566959699 11.576037924906588
-36.563680111375312 11.568355443460373
-36.562142465482694 11.560632783690895
-36.56077508719121 11.552878214138831
-36.559556784947411 11.545098875710847
-36.558472141054736 11.537299819107956
-36.557496853785928 11.529486369290341
-36.556613095528881 11.521662067172787
-36.55579350397791 11.513830805381513
-36.555018618194538 11.505995006983806
-36.554257004326743 11.498157911227409
-36.553486887088496 11.490321639466451
-36.552673718003909 11.482489698816337
-36.551793782289643 11.474664945619173
-36.55082298569225 11.466850898033018
-36.549723407715355 11.459053865522883
-36.548469930785885 11.451280008278653
-36.547037546735346 11.443537017872307
-36.545387854116122 11.435837274168145
-36.543496290847742 11.428193205509332
-36.541324599220317 11.420623777926501
-36.538849889957753 11.413147724105714
-36.536035470585709 11.40579257540686
-36.532861928747877 11.398584808741239
-36.529296064307275 11.391562513230097
-36.525307707611624 11.384770859885593
-36.520870880453963 11.378262826892961
-36.515982130066369 11.372087178960447
-36.510674277219771 11.366267922271282
-36.504981002166296 11.360825294801819
-36.498936411458644 11.35577583565739
-36.492574606942696 11.351132545629978
-36.485927974713583 11.346907188737555
-36.479029750734867 11.343106583685866
-36.47191107643873 11.339737105016683
-36.464602220708777 11.336803090986592
-36.457131811125279 11.334309142087493
-36.44952857667991 11.332255685301254
-36.441819699312731 11.330643791964789
-36.434032040800616 11.329470528242874
-36.426191325515411 11.328731218105265
-36.418321921997808 11.328422750697831
-36.410447349039217 11.328536980907126
-36.402589688366149 11.329064623153975
-36.39476983151561 11.329997560956349
-36.387007521826419 11.331326611564277
-36.379321252719016 11.333041363377058
-36.371728173609647 11.335130265617549
-36.364244010732897 11.337580754282369
-36.356884306086208 11.340382814467025
-36.349662014725183 11.343521996575696
-36.342588372246482 11.346983016172851
-36.33567279542693 11.350749837490019
-36.328922747305789 11.35480569997058
-36.322343642182915 11.359133231179237
-36.315938747846886 11.363714543251801
-36.309708898264894 11.368531074564169
-36.30365284386221 11.37356427340052
-36.2977669937248 11.378795385081181
-36.292045418281901 11.384205580677758
-36.286479861837506 11.389776049794991
-36.28105978235638 11.395488074596736
-36.275772444749897 11.401323103021584
-36.27060297696643 11.40726273181499
-36.265534525203478 11.413288724175581
-36.260548422255631 11.419382975240474
-36.255624083182006 11.425527199287846
-36.250739887009573 11.431703354637884
-36.245873125215901 11.43789324612084
-36.241000356991385 11.44407841639334
-36.236097781431333 11.450240011817836
-36.23114164510725 11.456358652335309
-36.226108677892341 11.462414317438308
-36.220976546017134 11.468386260007275
-36.215724307240315 11.474252957768218
-36.210332876553672 11.479992133714621
-36.204785370769599 11.485580744435371
-36.199067476644636 11.490995076526598
-36.193167713119983 11.496210838210688
-36.187077603693162 11.50120324675197
-36.180791757292489 11.505947083321546
-36.174308163614526 11.510417112915892
-36.167627521237833 11.514587178295564
-36.16075027292235 11.518424639910807
-36.153683644016127 11.521901348685555
-36.146438091247092 11.524988193362278
-36.13902756397183 11.527655097248187
-36.131469875661246 11.529871170970765
-36.123787053469094 11.531604631199377
-36.116006149448147 11.532824799447818
-36.10816004749995 11.533510492621852
-36.100285185762317 11.533644084871799
-36.09242137062504 11.533206845294758
-36.084609620955909 11.532203626173613
-36.076890109514714 11.530642244961516
-36.069297087651535 11.52855095277512
-36.061858258916175 11.52596444727287
-36.054590035136144 11.522931642810967
-36.047503693642192 11.519495386732673
-36.040586552365404 11.515730196383144
-36.033821530498038 11.511698087723932
-36.027187574239221 11.507453723126464
-36.020604266828059 11.503131119846515
-36.014015433415707 11.498816786668078
-36.007381678672232 11.494571616037867
-36.000699329648157 11.490403025902989

        </DataArray>
        <DataArray type="Float32" Name="u" NumberOfComponents="1">
          0 0.007874015748031496 0.015748031496062992 0.023622047244094488 0.031496062992125984 0.03937007874015748 0.047244094488188976 0.055118110236220472 0.062992125984251968 0.070866141732283464 0.07874015748031496 0.086614173228346455 0.094488188976377951 0.10236220472440945 0.11023622047244094 0.11811023622047244 0.12598425196850394 0.13385826771653545 0.14173228346456693 0.14960629921259844 0.15748031496062992 0.16535433070866143 0.17322834645669291 0.18110236220472442 0.1889763779527559 0.19685039370078741 0.20472440944881889 0.2125984251968504 0.22047244094488189 0.2283464566929134 0.23622047244094488 0.24409448818897639 0.25196850393700787 0.25984251968503935 0.26771653543307089 0.27559055118110237 0.28346456692913385 0.29133858267716534 0.29921259842519687 0.30708661417322836 0.31496062992125984 0.32283464566929132 0.33070866141732286 0.33858267716535434 0.34645669291338582 0.3543307086614173 0.36220472440944884 0.37007874015748032 0.37795275590551181 0.38582677165354329 0.39370078740157483 0.40157480314960631 0.40944881889763779 0.41732283464566927 0.42519685039370081 0.43307086614173229 0.44094488188976377 0.44881889763779526 0.45669291338582679 0.46456692913385828 0.47244094488188976 0.48031496062992124 0.48818897637795278 0.49606299212598426 0.50393700787401574 0.51181102362204722 0.51968503937007871 0.52755905511811019 0.53543307086614178 0.54330708661417326 0.55118110236220474 0.55905511811023623 0.56692913385826771 0.57480314960629919 0.58267716535433067 0.59055118110236215 0.59842519685039375 0.60629921259842523 0.61417322834645671 0.62204724409448819 0.62992125984251968 0.63779527559055116 0.64566929133858264 0.65354330708661412 0.66141732283464572 0.6692913385826772 0.67716535433070868 0.68503937007874016 0.69291338582677164 0.70078740157480313 0.70866141732283461 0.71653543307086609 0.72440944881889768 0.73228346456692917 0.74015748031496065 0.74803149606299213 0.75590551181102361 0.76377952755905509 0.77165354330708658 0.77952755905511806 0.78740157480314965 0.79527559055118113 0.80314960629921262 0.8110236220472441 0.81889763779527558 0.82677165354330706 0.83464566929133854 0.84251968503937003 0.85039370078740162 0.8582677165354331 0.86614173228346458 0.87401574803149606 0.88188976377952755 0.88976377952755903 0.89763779527559051 0.90551181102362199 0.91338582677165359 0.92125984251968507 0.92913385826771655 0.93700787401574803 0.94488188976377951 0.952755905511811 0.96062992125984248 0.96850393700787396 0.97637795275590555 0.98425196850393704 0.99212598425196852 1
        </DataArray>
      </PointData>
      <CellData Scalars="P">
        <DataArray type="Float32" Name="P" NumberOfComponents="1">
          0.021606895683163114 0.083848133241098841 0.16265473065289743 0.25714074236863665 0.36713112888974003 0.49244960200668519 0.63137460273953028 0.77991868022170507 0.94426901031905064 1.1258666996895643 1.3230021898824382 1.5272201795967733 1.7407681173567766 1.9558629669602423 2.1743512551846136 2.3879747308838115 2.5986268575588927 2.7955140656123381 2.977251344525059 3.1493948487385026 3.3042371389661853 3.4460192410732455 3.5665912435985412 3.6679071091104265 3.7436049157420075 3.7957634280793746 3.8304728722520887 3.8513805661579101 3.864145104386242 3.8779600059801362 3.8969435955365572 3.9369198969910633 3.9976124934842092 4.0981032805310118 4.2282393536402605 4.3871367276356272 4.590833620438695 4.8136131694011093 5.0463653518943623 5.2990302216673912 5.5426168774011559 5.7829809107052661 5.9898463674642226 6.1705611095686033 6.3038798483380925 6.4126372345685434 6.5024624601246233 6.5630155052791004 6.5673798324011008 6.5285029721302843 6.460637579114195 6.3778634158119267 6.2941924085720196 6.2235243415195303 6.1739494736217591 6.1558676008240925 6.1757751087347517 6.2364640178112438 6.3304246453223465 6.450099880406051 6.5800845536099608 6.7074972282319401 6.8234040121010144 6.9125599890096048 6.9676880202870644 6.9877998044355385 6.9710683798283375 6.9153579129031906 6.8188846181250424 6.6805889956558309 6.4978256708169582 6.2633074864940363 5.9698665789296266 5.6122595704847029 5.1873371598045992 4.6942121285682719 4.1344915060980698 3.5132734781847179 2.8376353685058016 2.1182744910640294 1.3687436565220372 0.60549879485654423 -0.15221051968452287 -0.88271547680971396 -1.5619176017888274 -2.1641706639235418 -2.6628839366810593 -3.0290982159269264 -3.2397099509433351 -3.2719243472793909 -3.1074879908325497 -2.7340506967028717 -2.1465475147465094 -1.348218195450769 -0.35102774002091225 0.82474129003760033 2.1516578456407665 3.5984350689813827 5.1326337871986167 6.7251199290609884 8.3545603140010112 10.011629225693087 11.699806285484044 13.445937640561766 15.322019031942235 17.332531202694579 19.517322582686734 21.910770660039823 24.527836892014147 27.34841222541462 30.283017507466031 33.121928235816753 35.636110656528174 37.547927176844041 38.426280183819877 37.942458763017342 35.840355651372107 32.02552326196286 26.670301202739683 19.937799894321504 12.855799717263162 5.9050492799614176 -0.40543386918801322 -2.8969239247676577 -2.7102477926249571 -1.0859575675438811 -0.021873576518029712
        </DataArray>
      </CellData>
      <Points>
        <DataArray type="Float32" NumberOfComponents="3" format="ascii">
          -36.667421114348578 11.707561237322054 0
          -36.660165977292728 11.704497332357152 0
          -36.653096516557945 11.7010265437412 0
          -36.646231145205377 11.697167860318801 0
          -36.639586346323391 11.692940743677841 0
          -36.633176717597323 11.688364978496937 0
          -36.627015188876321 11.683460324723821 0
          -36.621112791156051 11.678246797980037 0
          -36.615476225452035 11.672747037587291 0
          -36.610113041929814 11.666980445934067 0
          -36.605029098843843 11.660966302492715 0
          -36.60022907046293 11.65472328935571 0
          -36.595712476113235 11.648272325476293 0
          -36.591481037365647 11.641630897388804 0
          -36.587531222352041 11.634818285980087 0
          -36.583861730993569 11.627850745083425 0
          -36.580465907627456 11.620745870020802 0
          -36.57734033638387 11.613518093315692 0
          -36.574474945489463 11.606183342647547 0
          -36.57185845712889 11.598756223326536 0
          -36.569483844071748 11.591248332320164 0
          -36.567336584876521 11.583672343866059 0
          -36.565407566959699 11.576037924906588 0
          -36.563680111375312 11.568355443460373 0
          -36.562142465482694 11.560632783690895 0
          -36.56077508719121 11.552878214138831 0
          -36.559556784947411 11.545098875710847 0
          -36.558472141054736 11.537299819107956 0
          -36.557496853785928 11.529486369290341 0
          -36.556613095528881 11.521662067172787 0
          -36.55579350397791 11.513830805381513 0
          -36.555018618194538 11.505995006983806 0
          -36.554257004326743 11.498157911227409 0
          -36.553486887088496 11.490321639466451 0
          -36.552673718003909 11.482489698816337 0
          -36.551793782289643 11.474664945619173 0
          -36.55082298569225 11.466850898033018 0
          -36.549723407715355 11.459053865522883 0
          -36.548469930785885 11.451280008278653 0
          -36.547037546735346 11.443537017872307 0
          -36.545387854116122 11.435837274168145 0
          -36.543496290847742 11.428193205509332 0
          -36.541324599220317 11.420623777926501 0
          -36.538849889957753 11.413147724105714 0
          -36.536035470585709 11.40579257540686 0
          -36.532861928747877 11.398584808741239 0
          -36.529296064307275 11.391562513230097 0
          -36.525307707611624 11.384770859885593 0
          -36.520870880453963 11.378262826892961 0
          -36.515982130066369 11.372087178960447 0
          -36.510674277219771 11.366267922271282 0
          -36.504981002166296 11.360825294801819 0
          -36.498936411458644 11.35577583565739 0
          -36.492574606942696 11.351132545629978 0
          -36.485927974713583 11.346907188737555 0
          -36.479029750734867 11.343106583685866 0
          -36.47191107643873 11.339737105016683 0
          -36.464602220708777 11.336803090986592 0
          -36.457131811125279 11.334309142087493 0
          -36.44952857667991 11.332255685301254 0
          -36.441819699312731 11.330643791964789 0
          -36.434032040800616 11.329470528242874 0
          -36.426191325515411 11.328731218105265 0
          -36.418321921997808 11.328422750697831 0
          -36.410447349039217 11.328536980907126 0
          -36.402589688366149 11.329064623153975 0
          -36.39476983151561 11.329997560956349 0
          -36.387007521826419 11.331326611564277 0
          -36.379321252719016 11.333041363377058 0
          -36.371728173609647 11.335130265617549 0
          -36.364244010732897 11.337580754282369 0
          -36.356884306086208 11.340382814467025 0
          -36.349662014725183 11.343521996575696 0
          -36.342588372246482 11.346983016172851 0
          -36.33567279542693 11.350749837490019 0
          -36.328922747305789 11.35480569997058 0
          -36.322343642182915 11.359133231179237 0
          -36.315938747846886 11.363714543251801 0
          -36.309708898264894 11.368531074564169 0
          -36.30365284386221 11.37356427340052 0
          -36.2977669937248 11.378795385081181 0
          -36.292045418281901 11.384205580677758 0
          -36.286479861837506 11.389776049794991 0
          -36.28105978235638 11.395488074596736 0
          -36.275772444749897 11.401323103021584 0
          -36.27060297696643 11.40726273181499 0
          -36.265534525203478 11.413288724175581 0
          -36.260548422255631 11.419382975240474 0
          -36.255624083182006 11.425527199287846 0
          -36.250739887009573 11.431703354637884 0
          -36.245873125215901 11.43789324612084 0
          -36.241000356991385 11.44407841639334 0
          -36.236097781431333 11.450240011817836 0
          -36.23114164510725 11.456358652335309 0
          -36.226108677892341 11.462414317438308 0
          -36.220976546017134 11.468386260007275 0
          -36.215724307240315 11.474252957768218 0
          -36.210332876553672 11.479992133714621 0
          -36.204785370769599 11.485580744435371 0
          -36.199067476644636 11.490995076526598 0
          -36.193167713119983 11.496210838210688 0
          -36.187077603693162 11.50120324675197 0
          -36.180791757292489 11.505947083321546 0
          -36.174308163614526 11.510417112915892 0
          -36.167627521237833 11.514587178295564 0
          -36.16075027292235 11.518424639910807 0
          -36.153683644016127 11.521901348685555 0
          -36.146438091247092 11.524988193362278 0
          -36.13902756397183 11.527655097248187 0
          -36.131469875661246 11.529871170970765 0
          -36.123787053469094 11.531604631199377 0
          -36.116006149448147 11.532824799447818 0
          -36.10816004749995 11.533510492621852 0
          -36.100285185762317 11.533644084871799 0
          -36.09242137062504 11.533206845294758 0
          -36.084609620955909 11.532203626173613 0
          -36.076890109514714 11.530642244961516 0
          -36.069297087651535 11.52855095277512 0
          -36.061858258916175 11.52596444727287 0
          -36.054590035136144 11.522931642810967 0
          -36.047503693642192 11.519495386732673 0
          -36.040586552365404 11.515730196383144 0
          -36.033821530498038 11.511698087723932 0
          -36.027187574239221 11.507453723126464 0
          -36.020604266828059 11.503131119846515 0
          -36.014015433415707 11.498816786668078 0
          -36.007381678672232 11.494571616037867 0
          -36.000699329648157 11.490403025902989 0
        </DataArray>
      </Points>
      <Cells>
        <DataArray type="Int32" Name="connectivity" format="ascii">
          0 1 1 2 2 3 3 4 4 5 5 6 6 7 7 8 8 9 9 10 10 11 11 12 12 13 13 14 14 15 15 16 16 17 17 18 18 19 19 20 20 21 21 22 22 23 23 24 24 25 25 26 26 27 27 28 28 29 29 30 30 31 31 32 32 33 33 34 34 35 35 36 36 37 37 38 38 39 39 40 40 41 41 42 42 43 43 44 44 45 45 46 46 47 47 48 48 49 49 50 50 51 51 52 52 53 53 54 54 55 55 56 56 57 57 58 58 59 59 60 60 61 61 62 62 63 63 64 64 65 65 66 66 67 67 68 68 69 69 70 70 71 71 72 72 73 73 74 74 75 75 76 76 77 77 78 78 79 79 80 80 81 81 82 82 83 83 84 84 85 85 86 86 87 87 88 88 89 89 90 90 91 91 92 92 93 93 94 94 95 95 96 96 97 97 98 98 99 99 100 100 101 101 102 102 103 103 104 104 105 105 106 106 107 107 108 108 109 109 110 110 111 111 112 112 113 113 114 114 115 115 116 116 117 117 118 118 119 119 120 120 121 121 122 122 123 123 124 124 125 125 126 126 127 
        </DataArray>
        <DataArray type="Int32" Name="offsets" format="ascii">
          2 4 6 8 10 12 14 16 18 20 22 24 26 28 30 32 34 36 38 40 42 44 46 48 50 52 54 56 58 60 62 64 66 68 70 72 74 76 78 80 82 84 86 88 90 92 94 96 98 100 102 104 106 108 110 112 114 116 118 120 122 124 126 128 130 132 134 136 138 140 142 144 146 148 150 152 154 156 158 160 162 164 166 168 170 172 174 176 178 180 182 184 186 188 190 192 194 196 198 200 202 204 206 208 210 212 214 216 218 220 222 224 226 228 230 232 234 236 238 240 242 244 246 248 250 252 254 
        </DataArray>
        <DataArray type="Int32" Name="types" format="ascii">
          3 3 3 3 3 3 3 3 3 3 3 3 3 3 3 3 3 3 3 3 3 3 3 3 3 3 3 3 3 3 3 3 3 3 3 3 3 3 3 3 3 3 3 3 3 3 3 3 3 3 3 3 3 3 3 3 3 3 3 3 3 3 3 3 3 3 3 3 3 3 3 3 3 3 3 3 3 3 3 3 3 3 3 3 3 3 3 3 3 3 3 3 3 3 3 3 3 3 3 3 3 3 3 3 3 3 3 3 3 3 3 3 3 3 3 3 3 3 3 3 3 3 3 3 3 3 3         </DataArray>
      </Cells>
    </Piece>
  </UnstructuredGrid>
</VTKFile>
<!-- DATA


-->
