<?xml version="1.0"?>
<VTKFile type="UnstructuredGrid" version="0.1" byte_order="LittleEndian">
  <UnstructuredGrid>
    <Piece NumberOfPoints="128" NumberOfCells="127">
      <PointData Scalars="u">
        <DataArray type="Float32" Name="Y" NumberOfComponents="2">

0 0
0.11468779154180052 -0.032379143783255272
0.11810273115749231 -0.07254860766020936
0.12551191058591868 -0.11028544681589621
0.13536371970085359 -0.14483336035083499
0.14846920681388323 -0.17502414145161035
0.16226588836898301 -0.2008797999364357
0.17770600841888715 -0.22158072218767982
0.19243092312389434 -0.23795735759591649
0.20662350313907832 -0.25039787529654356
0.22094641360808365 -0.25862167655489393
0.23350188990886031 -0.26455368563075288
0.24560960260099651 -0.26909542003194781
0.25760306251007403 -0.27338068922785935
0.27088713428483635 -0.27731309488439204
0.28484852485075696 -0.2832386070627731
0.30152600287516879 -0.29231254398041578
0.32220173944543384 -0.30537537284175947
0.34738543426454005 -0.32281888097162292
0.37773784559031953 -0.34339977455193438
0.41202012054231862 -0.36813082361106964
0.45052167976125379 -0.39649742530941817
0.49235659584236718 -0.42696058470172654
0.53537978317596191 -0.45939808363855911
0.57848388543278462 -0.49229210599321815
0.61962055736714206 -0.52545969507451595
0.6573302902952689 -0.55783317031292701
0.69005965930813473 -0.58875643010150092
0.71633760413459469 -0.61789628173161926
0.735947915359906 -0.64446076214316195
0.74814098269262863 -0.66918200148012663
0.75167296836855524 -0.69109071840108061
0.74416413892084976 -0.70844072598377483
0.72730236020232997 -0.7176849492376377
0.70065095927944254 -0.71977129636885484
0.66512789728027433 -0.71351677968207539
0.62161377454068034 -0.6973214377163105
0.572053221261275 -0.66890624591917036
0.51848611347459506 -0.62639864519205002
0.46400874919607754 -0.5677652602433727
0.41268366638292092 -0.49148828748015888
0.35277125317751101 -0.40413297683931004
0.28249726715039686 -0.31561650721206608
0.22697709795768217 -0.22283332027187233
0.18776267006891204 -0.13109477031845099
0.16251236670779753 -0.045168639206032625
0.15077375375883348 0.031725230573873255
0.14947520377468962 0.097257633130532303
0.15609244719722268 0.15061753825000912
0.16745796245100397 0.19233705783887389
0.18307065774189596 0.223146210837425
0.20054133584897174 0.24436799866685419
0.2180799277749661 0.25796854322597812
0.23630957953188611 0.26510120135437071
0.25403401179109414 0.26733892338881948
0.27125996278027376 0.26603739464226728
0.28805557170449408 0.26263276573557087
0.30499050671058364 0.2582965513318517
0.32343366737762141 0.25352694688987537
0.34392142083254623 0.2500517126221779
0.36803062331789549 0.25025464613735782
0.39899688090516222 0.2554471829453942
0.43963518502562932 0.26652305990254571
0.49314533904811397 0.28276274478982055
0.56031380204451764 0.30622577011753566
0.64505900114416381 0.33325255869173337
0.74745463927499722 0.36334505702015568
0.86846324782006568 0.39518973339741503
1.0091165410074194 0.42743447667253248
1.1702598355673837 0.45901329361248389
1.3526600464669454 0.48899332644110449
1.556893060157214 0.51673565303788993
1.7833374804578075 0.5416487689804782
2.0320050441928812 0.56355876867332133
2.3026203323805965 0.5826555291986395
2.5945538973935616 0.59966386672607885
2.9067948301281388 0.61564720292082731
3.2378659983482816 0.63224090800481092
3.5858741693892391 0.65164197661330414
3.9484900786897259 0.67657972372520081
4.3231819019105737 0.70875213503562673
4.7075339380100383 0.75193718032768719
5.0994039408040024 0.81130751686963898
5.4962163727701556 0.89127821346548741
5.8947293404050418 0.99637491110884935
6.2909308267219881 1.1312228808009936
6.6799161534878868 1.3001078902278107
7.055887086149192 1.5065242127521297
7.4121610404771463 1.7533409200773957
7.7412579942324404 2.0423525162993967
8.0350633386270331 2.3738953030143839
8.2850892722093725 2.7465816071928444
8.4827948284256642 3.1572513361219743
8.6200140538108485 3.6006393582799356
8.6898066399178635 4.0689273733236249
8.6868427477070824 4.5528299278285598
8.6081058192732254 5.0417726736703905
8.4533669470038415 5.5246161179469651
8.2254554988879516 5.9905682769454263
7.9302503572035956 6.4302089730163177
7.5763364369063222 6.8365115249933908
7.1724427558950001 7.207652464812317
6.7257447216603676 7.544698452484127
6.2513695834134895 7.8443916949139547
5.7591191765747896 8.1118195526193997
5.2571396797096508 8.3548736869296381
4.7507210617223148 8.5832449545148481
4.2415871840013919 8.8067273549809233
3.727638106901813 9.0331517609565335
3.2028309514827131 9.2661816951370461
2.6583727190687103 9.5025797107435643
2.0887327996766407 9.7291218744319057
1.4955933490406812 9.9245121953455708
0.87850429580075073 10.062116394358712
0.24948526228050122 10.108525057346071
-0.36539229570683901 10.029398273522778
-0.93399009730997806 9.7938540015267748
-1.4136628537065499 9.3805023350557608
-1.7684839709947753 8.779539480882983
-1.9705872380011198 7.9939007619163132
-2.0076980836909128 7.0379026376316585
-1.8826606668247954 5.9371953617921607
-1.6163046433095614 4.7287912765129398
-1.2432666052853403 3.4622710655470219
-0.80429288158548595 2.2238162516479303
-0.41343280165449819 1.1207955702525929
-0.13606992057914022 0.31516202778136709
0 0

        </DataArray>
        <DataArray type="Float32" Name="W" NumberOfComponents="2">

-22.441887657251225 7.5113792026845498
-22.434025445161556 7.5118291037447174
-22.426198970523114 7.5127021807740961
-22.41842945915992 7.5139866412177776
-22.410736485079898 7.5156696360182815
-22.40313705046081 7.5177341164913472
-22.395647068228143 7.5201657458703881
-22.388279370800916 7.5229458270238263
-22.381046280611208 7.5260592487372806
-22.373956795575346 7.5294869828968203
-22.367017561892659 7.5332093970562424
-22.360235873212012 7.5372115492890774
-22.353614595369695 7.5414737555764857
-22.347154698889454 7.5459767178914152
-22.340854753276925 7.550700788100551
-22.334715279335231 7.555631535302453
-22.328731363917825 7.5607498786704763
-22.32289552198591 7.5660363641827804
-22.317198385202182 7.5714719818998928
-22.311627901493754 7.5770372654712999
-22.306175840347578 7.5827185608825758
-22.300826368473622 7.5884965110086089
-22.295562034041254 7.5943520956038189
-22.290369653898026 7.6002715456753487
-22.285228759483754 7.6062357392024031
-22.280124608520119 7.612231391572462
-22.275033734646541 7.6182383149139641
-22.269940191350365 7.6242429793791509
-22.264819649992592 7.6302246547393402
-22.259655692314411 7.6361689204987719
-22.254423381083139 7.6420531567536178
-22.249096982715098 7.6478524309485563
-22.243651718308985 7.6535403329840239
-22.238073138949179 7.6590976588668971
-22.232338570748794 7.6644940218128648
-22.22642697513956 7.6696960373981922
-22.220319567350352 7.6746669323804566
-22.214001325711831 7.6793672263311485
-22.207460317217667 7.6837525815910928
-22.200689518939129 7.6877745430670039
-22.193688004008845 7.691380522255554
-22.186462283752316 7.6945139628219952
-22.179035171207797 7.6971342735800929
-22.171445922701587 7.6992390145921918
-22.163732821452438 7.7008306678447447
-22.155931932719838 7.7019124215793928
-22.148077812898322 7.7024918430583247
-22.140202862721061 7.7025759833460663
-22.132337822005425 7.7021732906642022
-22.124511835651667 7.7012934194647915
-22.116752059902122 7.6999497680485645
-22.109084301209236 7.6981541205369757
-22.10153285356283 7.6959194119601655
-22.094119673872051 7.6932618767983092
-22.086865884181258 7.690195977916277
-22.079791019221688 7.6867372235441751
-22.072913202662949 7.6829016215239436
-22.066248869611975 7.6787061026650303
-22.059812959198826 7.674168010938728
-22.053620830864066 7.6693025947776023
-22.047686403732978 7.664126031664158
-22.042019905510504 7.6586575301858488
-22.03662926539317 7.6529169589107635
-22.031520103632843 7.6469245437997255
-22.026698885564073 7.6406981629890582
-22.022163455632253 7.6342606813698124
-22.017915262782644 7.6276301870746117
-22.013953506607283 7.6208247217924239
-22.010274837428835 7.6138622146700206
-22.006873914512472 7.6067599578116578
-22.003743123827494 7.5995346083737667
-22.000872587651603 7.5922020284891687
-21.998249857226355 7.5847772615435547
-21.995860612439298 7.5772741578377998
-21.99368841286562 7.569705419718062
-21.991714781340569 7.5620825431975485
-21.989919001420233 7.5544158682415405
-21.988278877711206 7.5467144368018015
-21.986770580032491 7.5389861454301377
-21.985368817763828 7.5312378551437744
-21.984047033052356 7.5234755471470685
-21.982782381024229 7.5157037439994268
-21.981546453888814 7.5079273296676616
-21.980310097875108 7.5001509823977885
-21.979043577842372 7.4923794794922207
-21.977716772374048 7.4846180194959038
-21.976298985923354 7.4768726293589705
-21.974760047708109 7.4691503540544852
-21.973070285107241 7.4614596187375364
-21.971200792027279 7.4538105211774468
-21.969123895442873 7.4462150407274095
-21.966813613250231 7.4386871819189455
-21.964246139598391 7.4312430250579569
-21.961399900828489 7.4239008378449451
-21.958256917101316 7.4166805973607248
-21.954802794466865 7.4096038260607369
-21.951027069606436 7.4026931845188004
-21.946923432819634 7.3959719805585191
-21.942489796880551 7.3894636353652583
-21.937728200674318 7.3831911524749447
-21.932644522331675 7.3771766637504497
-21.927248050961712 7.3714410885994948
-21.921545806249032 7.3660093429357527
-21.915552756499828 7.3609001981269691
-21.909285632635189 7.3561311807304772
-21.902762502583329 7.3517187763012366
-21.896002292695265 7.3476789646327099
-21.889024496281952 7.3440278465800102
-21.881849193600917 7.3407820880593935
-21.87449715855643 7.3379595102626558
-21.866990144677398 7.3355797172320978
-21.859351853038977 7.3336628541302851
-21.851609962110075 7.3322206142596276
-21.843793282686509 7.3312638280603766
-21.835932020637753 7.3307996927299586
-21.828057169739481 7.3308221796822819
-21.820197992486523 7.3313182246837849
-21.812379469412292 7.3322575944770501
-21.804620105458014 7.3336003816872939
-21.796930395632771 7.3352969669280412
-21.789313203503184 7.3372939295402171
-21.781764410734525 7.3395355585775617
-21.774273857844356 7.3419647145502127
-21.766829935648911 7.3445332945105424
-21.759385005622018 7.3470990488892758
-21.751911003384691 7.3495790019666547
-21.744386827475701 7.3519025237380786
-21.736818543808567 7.3540784515202864

        </DataArray>
        <DataArray type="Float32" Name="u" NumberOfComponents="1">
          0 0.007874015748031496 0.015748031496062992 0.023622047244094488 0.031496062992125984 0.03937007874015748 0.047244094488188976 0.055118110236220472 0.062992125984251968 0.070866141732283464 0.07874015748031496 0.086614173228346455 0.094488188976377951 0.10236220472440945 0.11023622047244094 0.11811023622047244 0.12598425196850394 0.13385826771653545 0.14173228346456693 0.14960629921259844 0.15748031496062992 0.16535433070866143 0.17322834645669291 0.18110236220472442 0.1889763779527559 0.19685039370078741 0.20472440944881889 0.2125984251968504 0.22047244094488189 0.2283464566929134 0.23622047244094488 0.24409448818897639 0.25196850393700787 0.25984251968503935 0.26771653543307089 0.27559055118110237 0.28346456692913385 0.29133858267716534 0.29921259842519687 0.30708661417322836 0.31496062992125984 0.32283464566929132 0.33070866141732286 0.33858267716535434 0.34645669291338582 0.3543307086614173 0.36220472440944884 0.37007874015748032 0.37795275590551181 0.38582677165354329 0.39370078740157483 0.40157480314960631 0.40944881889763779 0.41732283464566927 0.42519685039370081 0.43307086614173229 0.44094488188976377 0.44881889763779526 0.45669291338582679 0.46456692913385828 0.47244094488188976 0.48031496062992124 0.48818897637795278 0.49606299212598426 0.50393700787401574 0.51181102362204722 0.51968503937007871 0.52755905511811019 0.53543307086614178 0.54330708661417326 0.55118110236220474 0.55905511811023623 0.56692913385826771 0.57480314960629919 0.58267716535433067 0.59055118110236215 0.59842519685039375 0.60629921259842523 0.61417322834645671 0.62204724409448819 0.62992125984251968 0.63779527559055116 0.64566929133858264 0.65354330708661412 0.66141732283464572 0.6692913385826772 0.67716535433070868 0.68503937007874016 0.69291338582677164 0.70078740157480313 0.70866141732283461 0.71653543307086609 0.72440944881889768 0.73228346456692917 0.74015748031496065 0.74803149606299213 0.75590551181102361 0.76377952755905509 0.77165354330708658 0.77952755905511806 0.78740157480314965 0.79527559055118113 0.80314960629921262 0.8110236220472441 0.81889763779527558 0.82677165354330706 0.83464566929133854 0.84251968503937003 0.85039370078740162 0.8582677165354331 0.86614173228346458 0.87401574803149606 0.88188976377952755 0.88976377952755903 0.89763779527559051 0.90551181102362199 0.91338582677165359 0.92125984251968507 0.92913385826771655 0.93700787401574803 0.94488188976377951 0.952755905511811 0.96062992125984248 0.96850393700787396 0.97637795275590555 0.98425196850393704 0.99212598425196852 1
        </DataArray>
      </PointData>
      <CellData Scalars="P">
        <DataArray type="Float32" Name="P" NumberOfComponents="1">
          0.018546118920175627 0.046238498875096457 0.075958137834347891 0.11444960826975001 0.16357611370274824 0.22825851967417693 0.30710979867823146 0.4024924423467241 0.50892579155338202 0.62304815788841261 0.74529704947338737 0.86518780733683243 0.97653858713389363 1.0749562636428207 1.1602667912646667 1.2229811678696827 1.2590819573702481 1.2695861174480818 1.2595906664806271 1.2348140656076565 1.2022660952160098 1.1706070920968619 1.144144655798095 1.1340758805881241 1.138710201947629 1.1683772375095174 1.2148671189364191 1.2849694070263378 1.3668982445215887 1.466152391651393 1.5790007313409253 1.6952265223605463 1.7933871224039231 1.8726412595775364 1.9248208064218479 1.9395209313175767 1.9038432869720379 1.8046775364158687 1.6276221118273699 1.3586177812464879 0.98763203582683035 0.55148300463804512 0.11579063398877144 -0.28165761400368372 -0.61471830225527968 -0.86725719711443927 -1.03050583945108 -1.1035862664372029 -1.0931793012207129 -1.0120346966839198 -0.8696037284090864 -0.6787281548286842 -0.45510025574425927 -0.20648435681889113 0.05711754676743256 0.32616199681869396 0.5907991791467867 0.84255297962329212 1.0752333866259949 1.2734045316629097 1.4150926607790599 1.483299654180503 1.4662338372586812 1.356381062859862 1.1488358506107375 0.84606049860724175 0.45258815635077926 -0.026492842956977885 -0.58557557423901019 -1.2171278808458679 -1.9115355016333215 -2.6555558383301299 -3.4345897294066279 -4.2302715007105469 -5.021464135564659 -5.7831075379857113 -6.4908284207277003 -7.1179798897971596 -7.6380372626983446 -8.0257988380541505 -8.2884637717683489 -8.3793246228593166 -8.2816777598750093 -7.9818065922779526 -7.4701611900264275 -6.7395872813838906 -5.7955878754539469 -4.6491049327023193 -3.3190185896489979 -1.8337778533039828 -0.23106617032698126 1.4428859780837091 3.1374411236520166 4.7911323865304816 6.3441006711226624 7.7397868347311158 8.9299063782767867 9.8794727268975269 10.571203937601302 11.008748101473904 11.217999249837579 11.245919508409303 11.137023548839716 10.95457263412778 10.771980906589357 10.666672965157032 10.713060200718083 10.974409115786653 11.493513038727491 12.281041808233326 13.29587579871526 14.410357911354559 15.462392703571703 16.228062807606285 16.43114979425258 15.82524814683673 14.251552187217762 11.701096223243558 8.350445031700783 4.5036664404340554 0.56513166954660199 -3.0111627455315886 -6.0036658722032756 -5.9562185685984321 -4.1714203558305849 -1.5016239037056294 -0.018622249028975236
        </DataArray>
      </CellData>
      <Points>
        <DataArray type="Float32" NumberOfComponents="3" format="ascii">
          -22.441887657251225 7.5113792026845498 0
          -22.434025445161556 7.5118291037447174 0
          -22.426198970523114 7.5127021807740961 0
          -22.41842945915992 7.5139866412177776 0
          -22.410736485079898 7.5156696360182815 0
          -22.40313705046081 7.5177341164913472 0
          -22.395647068228143 7.5201657458703881 0
          -22.388279370800916 7.5229458270238263 0
          -22.381046280611208 7.5260592487372806 0
          -22.373956795575346 7.5294869828968203 0
          -22.367017561892659 7.5332093970562424 0
          -22.360235873212012 7.5372115492890774 0
          -22.353614595369695 7.5414737555764857 0
          -22.347154698889454 7.5459767178914152 0
          -22.340854753276925 7.550700788100551 0
          -22.334715279335231 7.555631535302453 0
          -22.328731363917825 7.5607498786704763 0
          -22.32289552198591 7.5660363641827804 0
          -22.317198385202182 7.5714719818998928 0
          -22.311627901493754 7.5770372654712999 0
          -22.306175840347578 7.5827185608825758 0
          -22.300826368473622 7.5884965110086089 0
          -22.295562034041254 7.5943520956038189 0
          -22.290369653898026 7.6002715456753487 0
          -22.285228759483754 7.6062357392024031 0
          -22.280124608520119 7.612231391572462 0
          -22.275033734646541 7.6182383149139641 0
          -22.269940191350365 7.6242429793791509 0
          -22.264819649992592 7.6302246547393402 0
          -22.259655692314411 7.6361689204987719 0
          -22.254423381083139 7.6420531567536178 0
          -22.249096982715098 7.6478524309485563 0
          -22.243651718308985 7.6535403329840239 0
          -22.238073138949179 7.6590976588668971 0
          -22.232338570748794 7.6644940218128648 0
          -22.22642697513956 7.6696960373981922 0
          -22.220319567350352 7.6746669323804566 0
          -22.214001325711831 7.6793672263311485 0
          -22.207460317217667 7.6837525815910928 0
          -22.200689518939129 7.6877745430670039 0
          -22.193688004008845 7.691380522255554 0
          -22.186462283752316 7.6945139628219952 0
          -22.179035171207797 7.6971342735800929 0
          -22.171445922701587 7.6992390145921918 0
          -22.163732821452438 7.7008306678447447 0
          -22.155931932719838 7.7019124215793928 0
          -22.148077812898322 7.7024918430583247 0
          -22.140202862721061 7.7025759833460663 0
          -22.132337822005425 7.7021732906642022 0
          -22.124511835651667 7.7012934194647915 0
          -22.116752059902122 7.6999497680485645 0
          -22.109084301209236 7.6981541205369757 0
          -22.10153285356283 7.6959194119601655 0
          -22.094119673872051 7.6932618767983092 0
          -22.086865884181258 7.690195977916277 0
          -22.079791019221688 7.6867372235441751 0
          -22.072913202662949 7.6829016215239436 0
          -22.066248869611975 7.6787061026650303 0
          -22.059812959198826 7.674168010938728 0
          -22.053620830864066 7.6693025947776023 0
          -22.047686403732978 7.664126031664158 0
          -22.042019905510504 7.6586575301858488 0
          -22.03662926539317 7.6529169589107635 0
          -22.031520103632843 7.6469245437997255 0
          -22.026698885564073 7.6406981629890582 0
          -22.022163455632253 7.6342606813698124 0
          -22.017915262782644 7.6276301870746117 0
          -22.013953506607283 7.6208247217924239 0
          -22.010274837428835 7.6138622146700206 0
          -22.006873914512472 7.6067599578116578 0
          -22.003743123827494 7.5995346083737667 0
          -22.000872587651603 7.5922020284891687 0
          -21.998249857226355 7.5847772615435547 0
          -21.995860612439298 7.5772741578377998 0
          -21.99368841286562 7.569705419718062 0
          -21.991714781340569 7.5620825431975485 0
          -21.989919001420233 7.5544158682415405 0
          -21.988278877711206 7.5467144368018015 0
          -21.986770580032491 7.5389861454301377 0
          -21.985368817763828 7.5312378551437744 0
          -21.984047033052356 7.5234755471470685 0
          -21.982782381024229 7.5157037439994268 0
          -21.981546453888814 7.5079273296676616 0
          -21.980310097875108 7.5001509823977885 0
          -21.979043577842372 7.4923794794922207 0
          -21.977716772374048 7.4846180194959038 0
          -21.976298985923354 7.4768726293589705 0
          -21.974760047708109 7.4691503540544852 0
          -21.973070285107241 7.4614596187375364 0
          -21.971200792027279 7.4538105211774468 0
          -21.969123895442873 7.4462150407274095 0
          -21.966813613250231 7.4386871819189455 0
          -21.964246139598391 7.4312430250579569 0
          -21.961399900828489 7.4239008378449451 0
          -21.958256917101316 7.4166805973607248 0
          -21.954802794466865 7.4096038260607369 0
          -21.951027069606436 7.4026931845188004 0
          -21.946923432819634 7.3959719805585191 0
          -21.942489796880551 7.3894636353652583 0
          -21.937728200674318 7.3831911524749447 0
          -21.932644522331675 7.3771766637504497 0
          -21.927248050961712 7.3714410885994948 0
          -21.921545806249032 7.3660093429357527 0
          -21.915552756499828 7.3609001981269691 0
          -21.909285632635189 7.3561311807304772 0
          -21.902762502583329 7.3517187763012366 0
          -21.896002292695265 7.3476789646327099 0
          -21.889024496281952 7.3440278465800102 0
          -21.881849193600917 7.3407820880593935 0
          -21.87449715855643 7.3379595102626558 0
          -21.866990144677398 7.3355797172320978 0
          -21.859351853038977 7.3336628541302851 0
          -21.851609962110075 7.3322206142596276 0
          -21.843793282686509 7.3312638280603766 0
          -21.835932020637753 7.3307996927299586 0
          -21.828057169739481 7.3308221796822819 0
          -21.820197992486523 7.3313182246837849 0
          -21.812379469412292 7.3322575944770501 0
          -21.804620105458014 7.3336003816872939 0
          -21.796930395632771 7.3352969669280412 0
          -21.789313203503184 7.3372939295402171 0
          -21.781764410734525 7.3395355585775617 0
          -21.774273857844356 7.3419647145502127 0
          -21.766829935648911 7.3445332945105424 0
          -21.759385005622018 7.3470990488892758 0
          -21.751911003384691 7.3495790019666547 0
          -21.744386827475701 7.3519025237380786 0
          -21.736818543808567 7.3540784515202864 0
        </DataArray>
      </Points>
      <Cells>
        <DataArray type="Int32" Name="connectivity" format="ascii">
          0 1 1 2 2 3 3 4 4 5 5 6 6 7 7 8 8 9 9 10 10 11 11 12 12 13 13 14 14 15 15 16 16 17 17 18 18 19 19 20 20 21 21 22 22 23 23 24 24 25 25 26 26 27 27 28 28 29 29 30 30 31 31 32 32 33 33 34 34 35 35 36 36 37 37 38 38 39 39 40 40 41 41 42 42 43 43 44 44 45 45 46 46 47 47 48 48 49 49 50 50 51 51 52 52 53 53 54 54 55 55 56 56 57 57 58 58 59 59 60 60 61 61 62 62 63 63 64 64 65 65 66 66 67 67 68 68 69 69 70 70 71 71 72 72 73 73 74 74 75 75 76 76 77 77 78 78 79 79 80 80 81 81 82 82 83 83 84 84 85 85 86 86 87 87 88 88 89 89 90 90 91 91 92 92 93 93 94 94 95 95 96 96 97 97 98 98 99 99 100 100 101 101 102 102 103 103 104 104 105 105 106 106 107 107 108 108 109 109 110 110 111 111 112 112 113 113 114 114 115 115 116 116 117 117 118 118 119 119 120 120 121 121 122 122 123 123 124 124 125 125 126 126 127 
        </DataArray>
        <DataArray type="Int32" Name="offsets" format="ascii">
          2 4 6 8 10 12 14 16 18 20 22 24 26 28 30 32 34 36 38 40 42 44 46 48 50 52 54 56 58 60 62 64 66 68 70 72 74 76 78 80 82 84 86 88 90 92 94 96 98 100 102 104 106 108 110 112 114 116 118 120 122 124 126 128 130 132 134 136 138 140 142 144 146 148 150 152 154 156 158 160 162 164 166 168 170 172 174 176 178 180 182 184 186 188 190 192 194 196 198 200 202 204 206 208 210 212 214 216 218 220 222 224 226 228 230 232 234 236 238 240 242 244 246 248 250 252 254 
        </DataArray>
        <DataArray type="Int32" Name="types" format="ascii">
          3 3 3 3 3 3 3 3 3 3 3 3 3 3 3 3 3 3 3 3 3 3 3 3 3 3 3 3 3 3 3 3 3 3 3 3 3 3 3 3 3 3 3 3 3 3 3 3 3 3 3 3 3 3 3 3 3 3 3 3 3 3 3 3 3 3 3 3 3 3 3 3 3 3 3 3 3 3 3 3 3 3 3 3 3 3 3 3 3 3 3 3 3 3 3 3 3 3 3 3 3 3 3 3 3 3 3 3 3 3 3 3 3 3 3 3 3 3 3 3 3 3 3 3 3 3 3         </DataArray>
      </Cells>
    </Piece>
  </UnstructuredGrid>
</VTKFile>
<!-- DATA


-->
